,Composition,MaterialId,Reduced Formula,Elements,NSites,Corrected Energy,Decomposition Energy Per Atom All,Decomposition Energy Per Atom MP,Directory
3668,Co6H4O20Se6,mp-505097,Co3H2Se3O10,"['Co', 'H', 'Se', 'O']",36.0,-199.83253199,0.0,0.0,
11900,Co6Mo2,mp-1139,Co3Mo,"['Co', 'Mo']",8.0,-64.76256225,0.0,0.0,
9370,Co6Ni2,mp-1183837,Co3Ni,"['Co', 'Ni']",8.0,-54.41648737,0.00040880912719742923,0.0,
16253,Co6O8,mp-1271793,Co3O4,"['Co', 'O']",14.0,-85.1249235,0.06937991496930795,0.0,
7625,Co6O28P8Pb2,mp-562742,Co3P4PbO14,"['Co', 'P', 'Pb', 'O']",44.0,-304.43336368,0.0,0.0,
12014,Co6Pt2,mp-865193,Co3Pt,"['Co', 'Pt']",8.0,-55.54866171,0.0026615260571292154,0.0,
14760,Co6S8,mp-943,Co3S4,"['Co', 'S']",14.0,-81.87787935,0.000628264202008566,0.0,
372,Co6Se8,mp-20456,Co3Se4,"['Co', 'Se']",14.0,-74.65734002,0.007132424980468066,0.0,
19125,Co6Mo4Si2,mp-1226069,Co3SiMo2,"['Co', 'Si', 'Mo']",12.0,-100.49636422,0.0,0.0,
14076,Co18O36Te6,mp-645717,Co3TeO6,"['Co', 'Te', 'O']",60.0,-356.23134492,0.00048339928255192177,0.0,
312,Co6W2,mp-2157,Co3W,"['Co', 'W']",8.0,-69.24096748,0.0,0.0,
13249,Co8Cu6Ni4Se24,mp-1226198,Co4Cu3(NiSe6)2,"['Co', 'Cu', 'Ni', 'Se']",42.0,-202.23656551,0.0,-2.6645352591003757e-15,
6734,Cl8Co16O36Se12,mp-1195181,Co4Se3Cl2O9,"['Co', 'Se', 'Cl', 'O']",72.0,-386.48806673,0.0,0.0,
15282,Co5Ni1S8,mp-1226019,Co5NiS8,"['Co', 'Ni', 'S']",14.0,-80.74435016,0.0005617456863840076,0.0,
6460,Co5O8Sb1,mp-33332,Co5SbO8,"['Co', 'Sb', 'O']",14.0,-86.51072024,0.0,0.0,
22864,Cl8Co10O22Te8,mp-562327,Co5Te4Cl4O11,"['Co', 'Te', 'Cl', 'O']",48.0,-250.86297447,-1.0658141036401503e-14,0.0,
16814,Cl8Co24O48Te12,mp-562912,Co6Te3(ClO6)2,"['Co', 'Te', 'Cl', 'O']",92.0,-514.69663768,0.0,0.0,
17557,As4Co14O24,mp-17489,Co7(AsO6)2,"['Co', 'As', 'O']",42.0,-259.40269539,0.0008231880264126801,0.0,
19631,Co14O24Sb4,mp-685142,Co7(SbO6)2,"['Co', 'Sb', 'O']",42.0,-259.9266367,0.0,0.0,
17226,Co7Ni1P4,mp-1226111,Co7NiP4,"['Co', 'Ni', 'P']",12.0,-83.62042577,0.03935144433416227,0.0,
18010,Br12Co14O24Te8,mp-639164,Co7Te4(BrO2)6,"['Co', 'Te', 'Br', 'O']",58.0,-291.03948556,0.012294211919785525,0.0,
22398,Co8Rh1S8,mp-1188878,Co8RhS8,"['Co', 'Rh', 'S']",17.0,-105.95831556,0.0006803332697611353,0.0,
5469,Co8Ru1S8,mp-1181796,Co8RuS8,"['Co', 'Ru', 'S']",17.0,-107.61641111,0.0003294260317092679,0.0,
27369,Co9S8,mp-1513,Co9S8,"['Co', 'S']",17.0,-105.21993485,0.00021361018497234596,0.0,
28563,Co9Se8,mp-22745,Co9Se8,"['Co', 'Se']",17.0,-96.61019095,0.00022178192210464687,0.0,
15045,Co18O60Pb12Te10,mp-1203045,Co9Te5(PbO5)6,"['Co', 'Te', 'Pb', 'O']",100.0,-579.09317746,5.329070518200751e-15,0.0,
4411,Ag4Co4N12O36,mp-562172,CoAg(NO3)3,"['Co', 'Ag', 'N', 'O']",56.0,-334.33736889,0.0,1.1546319456101628e-14,
26513,Ag2Co1S8Sn3,mp-1226122,CoAg2Sn3S8,"['Co', 'Ag', 'Sn', 'S']",14.0,-62.40986877,0.007843264213870604,0.0,
2762,Ag2Co2O4,mp-19178,CoAgO2,"['Co', 'Ag', 'O']",8.0,-41.76548241,0.00010057597778345695,0.0,
19177,As4Co4,mp-583,CoAs,"['Co', 'As']",8.0,-49.47226812,0.00010430619750945169,0.0,
10020,As8Co4,mp-2715,CoAs2,"['Co', 'As']",12.0,-69.6156962,0.0,0.0,
12891,As12Co4,mp-452,CoAs3,"['Co', 'As']",16.0,-89.22020355,0.0,0.0,
31052,As8Co2F36,mp-29758,CoAs4F18,"['Co', 'As', 'F']",46.0,-212.54675685,3.8165242866483595e-05,0.0,
21307,As2Co2S2,mp-553946,CoAsS,"['Co', 'As', 'S']",6.0,-34.50296312,2.185304687518652e-05,0.0,
6109,As8Co8Se8,mp-505511,CoAsSe,"['Co', 'As', 'Se']",24.0,-131.12989737,1.4057133787659382e-05,0.0,
29185,Au1Co1O2,mp-997161,CoAuO2,"['Co', 'Au', 'O']",4.0,-21.1056872,5.341209716824835e-05,0.0,
12096,B4Co4,mp-20857,CoB,"['Co', 'B']",8.0,-58.3674595,4.9446502685235316e-05,0.0,
16540,B4Co4Mo4,mp-21347,CoBMo,"['Co', 'B', 'Mo']",12.0,-103.79019694,1.3546422525934076e-05,0.0,
24597,B4Co4W4,mp-22759,CoBW,"['Co', 'B', 'W']",12.0,-112.17840453,7.830393717433992e-05,0.0,
24582,Bi16Co8O56S8,mp-1195268,CoBi2SO7,"['Co', 'Bi', 'S', 'O']",88.0,-531.7364575,0.0,0.0,
13957,Bi12Co2O32S4,mp-1190466,CoBi6(SO8)2,"['Co', 'Bi', 'S', 'O']",50.0,-299.34956219,0.00010672983281345694,0.0,
8548,As4Bi4Co4O20,mp-1105091,CoBiAsO5,"['Co', 'Bi', 'As', 'O']",32.0,-194.35158054,0.0,0.0,
2167,Bi2Co2O6,mp-545522,CoBiO3,"['Co', 'Bi', 'O']",10.0,-58.92579522,0.02463130667756097,0.0,
29803,Bi4Co4O20P4,mp-23595,CoBiPO5,"['Co', 'Bi', 'P', 'O']",32.0,-212.52665631,0.0,0.0,
11741,Br2Co1,mp-30033,CoBr2,"['Co', 'Br']",3.0,-11.34260723,0.02654556058105495,0.0,
12170,C2Co2O6,mp-21434,CoCO3,"['Co', 'C', 'O']",10.0,-71.67560729,0.0,0.0,
17690,Cl2Co1,mp-696114,CoCl2,"['Co', 'Cl']",3.0,-12.52278322,0.025360658742675568,0.0,
12323,Co2Cu2Ni2S8,mp-1226116,CoCuNiS4,"['Co', 'Cu', 'Ni', 'S']",14.0,-72.29958663,0.00043588541992267693,0.0,
7788,Co2Cu2S8,mp-1226070,CoCuS4,"['Co', 'Cu', 'S']",12.0,-58.24724577,0.0167932811455076,0.0,
15519,Co2F4,mp-555908,CoF2,"['Co', 'F']",6.0,-30.84835338,0.0,0.0,
24158,Co4F12,mp-1271079,CoF3,"['Co', 'F']",16.0,-73.81875751,0.0,0.0,
31622,Co4Ge4O12,mp-550220,CoGeO3,"['Co', 'Ge', 'O']",20.0,-127.35061727,0.0,0.0,
21092,Co8Ge8Te8,mp-3715,CoGeTe,"['Co', 'Ge', 'Te']",24.0,-124.40555427,0.0,0.0,
25167,Co1H1,mp-1206874,CoH,"['Co', 'H']",2.0,-10.45346864,0.0010159317700191295,0.0,
16551,Br8Co4H48O24,mp-510271,CoH12(BrO3)2,"['Co', 'H', 'Br', 'O']",84.0,-397.31895453,0.003893128153831249,0.0,
30240,Br8Co4H48O48,mp-728892,CoH12(BrO6)2,"['Co', 'H', 'Br', 'O']",108.0,-512.13691511,0.014371419833356214,0.0,
21292,Cl8Co4H8O4,mp-1192030,CoH2Cl2O,"['Co', 'H', 'Cl', 'O']",24.0,-104.42893083,0.02838100250569653,0.0,
9178,Co4H8O20S4,mp-643547,CoH2SO5,"['Co', 'H', 'S', 'O']",36.0,-208.78565457,0.0,0.0,
1244,Co4H8O20Se4,mp-23967,CoH2SeO5,"['Co', 'H', 'Se', 'O']",36.0,-193.86648946,0.0,0.0,
22516,Cl2Co1H4O2,mp-23853,CoH4(ClO)2,"['Co', 'H', 'Cl', 'O']",9.0,-41.16775027,0.0003513604147666882,0.0,
8152,Co1H1O2,mp-27913,CoHO2,"['Co', 'H', 'O']",4.0,-22.62118914,0.0007717762792971428,0.0,
9650,Co1I2,mp-569610,CoI2,"['Co', 'I']",3.0,-10.14849901,0.12252872493326805,0.0,
20257,Co2H4Mo2O14Se2,mp-866480,CoMoH2SeO7,"['Co', 'Mo', 'H', 'Se', 'O']",24.0,-142.76823926,0.0023729671391166107,-4.796163466380676e-14,
28664,Co4Mo4P4,mp-22262,CoMoP,"['Co', 'Mo', 'P']",12.0,-100.85173445,0.00010138331705888959,0.0,
7578,Co2Mo2P4,mp-1025557,CoMoP2,"['Co', 'Mo', 'P']",8.0,-62.5782521,0.00011333536987301329,0.0,
15977,Co1N1,mp-448,CoN,"['Co', 'N']",2.0,-15.2315782,5.470340576163579e-05,0.0,
29652,Co2Ni2O6,mp-1178424,CoNiO3,"['Co', 'Ni', 'O']",10.0,-54.40139231,0.0,0.0,
11989,Co3Ni3P3,mp-1226037,CoNiP,"['Co', 'Ni', 'P']",9.0,-60.05099192,0.00031991497611638664,0.0,
20673,Co1Ni1Pt2,mp-1226004,CoNiPt2,"['Co', 'Ni', 'Pt']",4.0,-25.41105182,0.0,0.0,
1766,Co1Ni1Te4,mp-1226048,CoNiTe4,"['Co', 'Ni', 'Te']",6.0,-26.80968369,0.0,0.0,
11346,Co4O4,mp-22408,CoO,"['Co', 'O']",8.0,-49.20016007,0.0,0.0,
21352,Co4O8,mp-1400906,CoO2,"['Co', 'O']",12.0,-68.93854684,0.0009011157910148171,0.0,
21871,Co4P4,mp-22270,CoP,"['Co', 'P']",8.0,-54.75537059,5.394556762716718e-05,0.0,
28760,Co4P8,mp-14285,CoP2,"['Co', 'P']",12.0,-78.13519836,0.0,0.0,
18674,Co2H16O20P4,mp-24536,CoP2(H4O5)2,"['Co', 'P', 'H', 'O']",42.0,-246.52686136,0.0,0.0,
7921,Co4O28P8Pb4,mp-505235,CoP2PbO7,"['Co', 'P', 'Pb', 'O']",44.0,-302.87096715,0.0,0.0,
22367,Co4P12,mp-1944,CoP3,"['Co', 'P']",16.0,-101.35062912,0.0,0.0,
7359,Co1H16N2O16P4,mp-24300,CoP4H16(NO8)2,"['Co', 'P', 'H', 'N', 'O']",39.0,-230.57697932,0.0,2.220446049250313e-14,
8698,Co4O44P16,mp-562669,CoP4O11,"['Co', 'P', 'O']",64.0,-451.57365245,0.0,0.0,
25671,Co1O24P6W3,mp-774466,CoP6(WO8)3,"['Co', 'P', 'W', 'O']",34.0,-248.48210587,0.0,0.0,
22122,Co2O8P2,mp-849770,CoPO4,"['Co', 'P', 'O']",12.0,-80.99518672,0.0026908252945956335,0.0,
13112,Co2P2Pd2,mp-1018673,CoPPd,"['Co', 'P', 'Pd']",6.0,-39.01507426,0.0,-1.7763568394002505e-15,
29933,Co4P4S4,mp-1226003,CoPS,"['Co', 'P', 'S']",12.0,-73.25889097,0.012349305966797175,0.0,
24815,Co8P8Se8,mp-10368,CoPSe,"['Co', 'P', 'Se']",24.0,-139.27319539,3.7707779911855255e-06,0.0,
19171,Co4P4W4,mp-1102504,CoPW,"['Co', 'P', 'W']",12.0,-107.24599417,0.0004660620052074904,0.0,
3463,Co1Pt1,mp-949,CoPt,"['Co', 'Pt']",2.0,-13.35086597,0.0002314398962406372,0.0,
12429,Co1Pt3,mp-922,CoPt3,"['Co', 'Pt']",4.0,-25.53692238,0.0012001383628339468,0.0,
20503,Co1F6Pt1,mp-556492,CoPtF6,"['Co', 'Pt', 'F']",8.0,-35.80692841,0.00015569633911205472,0.0,
25959,Co4O8Pt4,mp-19210,CoPtO2,"['Co', 'Pt', 'O']",16.0,-96.91920948,0.03418441726562449,0.0,
23944,Co2Re6,mp-865960,CoRe3,"['Co', 'Re']",8.0,-89.42236056,0.0,0.0,
377,Co2Rh2S8,mp-1226106,CoRhS4,"['Co', 'Rh', 'S']",12.0,-66.48762803,0.026615497282985068,0.0,
11421,Co4S8,mp-2070,CoS2,"['Co', 'S']",12.0,-65.81206826,0.00028347080566337723,0.0,
31629,Co4O16S4,mp-19379,CoSO4,"['Co', 'S', 'O']",24.0,-148.39596651,0.0,0.0,
10819,Co2Sb2,mp-2644,CoSb,"['Co', 'Sb']",4.0,-23.12087868,0.0024247964001462563,0.0,
18195,Br8Co4O12Sb8,mp-550763,CoSb2Br2O3,"['Co', 'Sb', 'Br', 'O']",32.0,-161.72348819,0.0,0.0,
16195,Co4Sb12,mp-1317,CoSb3,"['Co', 'Sb']",16.0,-80.98504902,0.0,0.0,
20737,Co8S8Sb8,mp-5881,CoSbS,"['Co', 'Sb', 'S']",24.0,-131.79408227,0.0,0.0,
15251,Co2Sb2Te2,mp-1226005,CoSbTe,"['Co', 'Sb', 'Te']",6.0,-29.97436254,3.0119777831849603e-05,0.0,
7714,Co2Se4,mp-20862,CoSe2,"['Co', 'Se']",6.0,-29.985582,0.017904315646701363,0.0,
25077,Co4O20Se8,mp-18973,CoSe2O5,"['Co', 'Se', 'O']",32.0,-175.89683787,5.329070518200751e-15,0.0,
19472,Co16O48Se16,mp-562826,CoSeO3,"['Co', 'Se', 'O']",80.0,-453.23432085,0.0,0.0,
17452,Co4O16Se4,mp-504678,CoSeO4,"['Co', 'Se', 'O']",24.0,-133.70903789,-1.1546319456101628e-14,0.0,
13147,Co4Si4,mp-7577,CoSi,"['Co', 'Si']",8.0,-55.06170025,5.509646606416396e-05,0.0,
16487,Co1Si2,mp-2379,CoSi2,"['Co', 'Si']",3.0,-19.36925351,0.0018143410677087246,0.0,
20642,Co1Ni1Si4,mp-1226006,CoSi4Ni,"['Co', 'Si', 'Ni']",6.0,-37.25370868,0.0,0.0,
29397,Co3Sn3,mp-20536,CoSn,"['Co', 'Sn']",6.0,-34.00424378,0.0009177643684896708,0.0,
17390,Co4F24H48O24Sn8,mp-561571,CoSn2H12(OF)6,"['Co', 'Sn', 'H', 'O', 'F']",108.0,-536.35449987,0.0,0.0,
24236,Co8Sn24,mp-985707,CoSn3,"['Co', 'Sn']",32.0,-154.86996586,0.0011830730751549723,0.0,
24496,Co1F6Sn1,mp-561319,CoSnF6,"['Co', 'Sn', 'F']",8.0,-39.40325855,5.395444335931643e-05,0.0,
26105,Co2Tc6,mp-865733,CoTc3,"['Co', 'Tc']",8.0,-76.88018448,0.0,0.0,
13339,Co1Te2,mp-1009641,CoTe2,"['Co', 'Te']",3.0,-14.0149643,0.001142072729492405,0.0,
19568,Co2Mo2O12Te2,mp-551806,CoTeMoO6,"['Co', 'Te', 'Mo', 'O']",18.0,-113.76160848,0.005105304849172931,1.3322676295501878e-14,
3515,Co4O16Te4,mp-1226075,CoTeO4,"['Co', 'Te', 'O']",24.0,-137.52733559,0.0,0.0,
8902,Co2O8W2,mp-19092,CoWO4,"['Co', 'W', 'O']",12.0,-85.13843815,0.0,0.0,
8836,Cr2,mp-90,Cr,['Cr'],2.0,-19.30609494,0.0,0.0,
4404,B4Cr2Mo4,mp-1206931,Cr(BMo)2,"['Cr', 'B', 'Mo']",10.0,-93.83285483,0.001425973298827543,0.0,
639,Bi14Cr1O24,mp-698567,Cr(Bi7O12)2,"['Cr', 'Bi', 'O']",39.0,-229.6013181,0.0030400144130613427,0.0,
15995,Cr4O36P12,mp-554600,Cr(PO3)3,"['Cr', 'P', 'O']",52.0,-385.21990712,1.4210854715202004e-14,1.4210854715202004e-14,
30034,Bi12Cr4O30,mp-30205,Cr2(Bi2O5)3,"['Cr', 'Bi', 'O']",46.0,-284.28356191,0.0,0.0,
3198,C6Cr4N12,mp-1190798,Cr2(CN2)3,"['Cr', 'C', 'N']",22.0,-195.80515184,0.0215993689191194,0.0,
11028,Cr8Mo12O48,mp-647862,Cr2(MoO4)3,"['Cr', 'Mo', 'O']",68.0,-499.85030286,0.00019038475643462505,0.0,
9470,Cr4O24S6,mp-19361,Cr2(SO4)3,"['Cr', 'S', 'O']",34.0,-226.18914934,-6.217248937900877e-15,0.0,
7977,C6Cr21Mo2,mp-641573,Cr21(MoC3)2,"['Cr', 'Mo', 'C']",29.0,-282.28496517,0.0001318162688548341,-1.7763568394002505e-15,
30613,C6Cr21W2,mp-641575,Cr21(WC3)2,"['Cr', 'W', 'C']",29.0,-286.46285126,2.4508679954848844e-05,-1.7763568394002505e-15,
13437,C6Cr23,mp-723,Cr23C6,"['Cr', 'C']",29.0,-279.45826858,-1.7763568394002505e-15,-1.7763568394002505e-15,
15975,Ag2Cr4S8,mp-1238827,Cr2AgS4,"['Cr', 'Ag', 'S']",14.0,-85.04117526,0.023589460275521112,0.0,
24762,Ag2Cr4Te8,mp-20118,Cr2AgTe4,"['Cr', 'Ag', 'Te']",14.0,-72.30118382,0.00018428385323598917,0.0,
21981,B4Cr8,mp-569424,Cr2B,"['Cr', 'B']",12.0,-108.40362525,0.0005302627766923251,0.0,
6600,Cd2Cr4O8,mp-19262,Cr2CdO4,"['Cr', 'Cd', 'O']",14.0,-96.60562273,0.0,0.0,
23828,Cd2Cr4S8,mp-4338,Cr2CdS4,"['Cr', 'Cd', 'S']",14.0,-83.37332375,0.0,0.0,
567,Cd2Cr4Se8,mp-22605,Cr2CdSe4,"['Cr', 'Cd', 'Se']",14.0,-76.30794739,0.0001988262165184551,0.0,
10734,Co2Cr4O8,mp-20758,Cr2CoO4,"['Cr', 'Co', 'O']",14.0,-105.54846188,0.0,1.5987211554602254e-14,
14364,Cr4Cu2S8,mp-22803,Cr2CuS4,"['Cr', 'Cu', 'S']",14.0,-88.78100438,0.0006983434974889846,0.0,
23299,Cr4Cu2Se8,mp-3880,Cr2CuSe4,"['Cr', 'Cu', 'Se']",14.0,-81.54133423,1.0658141036401503e-14,0.0,
3755,Cr4Cu2Te8,mp-22625,Cr2CuTe4,"['Cr', 'Cu', 'Te']",14.0,-74.99015157,0.0004020589648439099,0.0,
26771,Cr4Fe2O8,mp-1104680,Cr2FeO4,"['Cr', 'Fe', 'O']",14.0,-107.65734225,1.5987211554602254e-14,1.5987211554602254e-14,
9096,C2Cr4Ga2,mp-20197,Cr2GaC,"['Cr', 'Ga', 'C']",8.0,-64.16742067,0.0002373103540040944,0.0,
6417,C2Cr4Ge2,mp-19821,Cr2GeC,"['Cr', 'Ge', 'C']",8.0,-66.91872534,0.0,0.0,
2423,Cl2Cr4F2H4O20Pb8,mp-1226437,Cr2H2Pb4ClO10F,"['Cr', 'H', 'Pb', 'Cl', 'O', 'F']",40.0,-233.12761914,0.00046248780859325933,0.0,
6304,Cr4Hg2O8,mp-21074,Cr2HgO4,"['Cr', 'Hg', 'O']",14.0,-91.72826958,0.0,0.0,
22856,Cr4Hg2S8,mp-15973,Cr2HgS4,"['Cr', 'Hg', 'S']",14.0,-80.24355004,0.0033797231882024548,0.0,
23616,Cr4Hg2Se8,mp-5602,Cr2HgSe4,"['Cr', 'Hg', 'Se']",14.0,-73.53134714,0.0002410865053024125,0.0,
3108,C1Cr2Ir2,mp-1226352,Cr2Ir2C,"['Cr', 'Ir', 'C']",5.0,-47.0796048,0.01845578474023668,0.0,
10812,Cr6N3,mp-8780,Cr2N,"['Cr', 'N']",9.0,-86.39982179,0.00010221891709960573,0.0,
24435,Cr4Ni2O8,mp-1271107,Cr2NiO4,"['Cr', 'Ni', 'O']",14.0,-99.75358722,0.0,0.0,
4704,Cr4O6,mp-19399,Cr2O3,"['Cr', 'O']",10.0,-79.8478336,0.0,0.0,
15082,Cr12O42P12,mp-554453,Cr2P2O7,"['Cr', 'P', 'O']",66.0,-502.34237154,0.0003239086624198251,0.0,
7709,Cr8O64P16Pb12,mp-704115,Cr2P4Pb3O16,"['Cr', 'P', 'Pb', 'O']",100.0,-713.61886512,0.0002837364953123256,0.0,
8640,Br4Cr8O16P4,mp-556473,Cr2PBrO4,"['Cr', 'P', 'Br', 'O']",32.0,-227.48369617,0.0,0.0,
24894,Cr8I4O16P4,mp-557217,Cr2PIO4,"['Cr', 'P', 'I', 'O']",32.0,-224.40653177,0.0,0.0,
22790,C1Cr2Rh2,mp-1226355,Cr2Rh2C,"['Cr', 'Rh', 'C']",5.0,-43.82264044,0.006895251843749506,0.0,
29351,Br1Cl1Cr2S2,mp-1226363,Cr2S2BrCl,"['Cr', 'S', 'Br', 'Cl']",6.0,-36.065469,0.003683737731932979,0.0,
5138,Cr4S6,mp-555569,Cr2S3,"['Cr', 'S']",10.0,-70.35235127,0.0007441088398438822,0.0,
321,Cr4Se6,mp-2832,Cr2Se3,"['Cr', 'Se']",10.0,-64.85994007,6.182185742353852e-05,0.0,
9355,Cr8Te12,mp-2750,Cr2Te3,"['Cr', 'Te']",20.0,-119.19007509,0.0005568961347659496,0.0,
1588,Cr4O22Te8,mp-540537,Cr2Te4O11,"['Cr', 'Te', 'O']",34.0,-209.07276091,0.002926357943477065,1.2434497875801753e-14,
5482,Cr4O12Te2,mp-21355,Cr2TeO6,"['Cr', 'Te', 'O']",18.0,-124.43651621,0.0,0.0,
2233,Cr4O12W2,mp-19894,Cr2WO6,"['Cr', 'W', 'O']",18.0,-140.28224681,-1.5987211554602254e-14,-1.5987211554602254e-14,
8519,Cr12Fe8O48,mp-776667,Cr3(FeO6)2,"['Cr', 'Fe', 'O']",68.0,-457.48430198,0.006293432221966988,0.0,
29601,Ag2Cr6O16,mp-546111,Cr3AgO8,"['Cr', 'Ag', 'O']",24.0,-159.18672192,1.5870735676770664e-06,0.0,
8391,B14Cr6F2O26,mp-1213769,Cr3B7O13F,"['Cr', 'B', 'O', 'F']",48.0,-381.18785172,5.94042708339515e-05,0.0,
18588,C8Cr12,mp-20937,Cr3C2,"['Cr', 'C']",20.0,-191.65615505,1.6954531250945593e-05,0.0,
14026,Cr3Cu2S8Sb1,mp-1226326,Cr3Cu2SbS8,"['Cr', 'Cu', 'Sb', 'S']",14.0,-81.88613699,0.0006403949399285125,0.0,
13497,Cr12Ga4S24,mp-1226433,Cr3GaS6,"['Cr', 'Ga', 'S']",40.0,-255.0129234,0.001462158225097987,0.0,
7586,Cr3Ni1P4,mp-1226323,Cr3NiP4,"['Cr', 'Ni', 'P']",8.0,-60.527903,0.00014494862620040294,0.0,
6100,Cr12P4,mp-7806,Cr3P,"['Cr', 'P']",16.0,-142.92372229,0.0,0.0,
12848,Cr3N1Pt1,mp-10374,Cr3PtN,"['Cr', 'Pt', 'N']",5.0,-44.9669329,2.1635332029035226e-05,-1.7763568394002505e-15,
920,Cr6Si2,mp-729,Cr3Si,"['Cr', 'Si']",8.0,-71.49414825,0.0,0.0,
8172,Ag1Cd1Cr4Se8,mp-1226280,Cr4CdAgSe8,"['Cr', 'Cd', 'Ag', 'Se']",14.0,-77.28945996,0.002755318844865684,0.0,
26551,Cr4Cu1Ni1Se8,mp-1226405,Cr4CuNiSe8,"['Cr', 'Cu', 'Ni', 'Se']",14.0,-83.09677082,0.0013368692915314284,0.0,
18526,Cr4Cu1Ga1S8,mp-1226247,Cr4GaCuS8,"['Cr', 'Ga', 'Cu', 'S']",14.0,-88.61951315,3.0759758649523405e-05,2.3092638912203256e-14,
27043,Cr4Cu1Ga1Se8,mp-1226304,Cr4GaCuSe8,"['Cr', 'Ga', 'Cu', 'Se']",14.0,-81.15886987,8.81393429130739e-05,0.0,
3981,Cr4Ga1S8,mp-1226264,Cr4GaS8,"['Cr', 'Ga', 'S']",13.0,-83.60548463,0.006129156597802776,0.0,
3009,Ag1Cr4In1S8,mp-1226293,Cr4InAgS8,"['Cr', 'In', 'Ag', 'S']",14.0,-86.39598492,0.0002107547028460388,0.0,
5826,Ag1Cr4In1Se8,mp-1226322,Cr4InAgSe8,"['Cr', 'In', 'Ag', 'Se']",14.0,-79.3616427,0.0,0.0,
27085,Cr4Cu1In1Se8,mp-20809,Cr4InCuSe8,"['Cr', 'In', 'Cu', 'Se']",14.0,-80.659928,0.0,0.0,
2865,Br8Cr16O28Si8,mp-557963,Cr4Si2Br2O7,"['Cr', 'Si', 'Br', 'O']",60.0,-434.37879395,1.5677819009241034e-05,0.0,
27664,Cl8Cr16O28Si8,mp-556318,Cr4Si2Cl2O7,"['Cr', 'Si', 'Cl', 'O']",60.0,-439.89939169,2.0526683593757866e-05,0.0,
21748,B4Cr10P2,mp-1189261,Cr5B2P,"['Cr', 'B', 'P']",16.0,-141.65290561,0.00038640779785126256,0.0,
15492,B6Cr10,mp-15617,Cr5B3,"['Cr', 'B']",16.0,-143.2572616,0.0,0.0,
23183,Cr5In1S8,mp-1226160,Cr5InS8,"['Cr', 'In', 'S']",14.0,-93.36525344,0.0003290302343748053,0.0,
22032,Cr20O48,mp-773920,Cr5O12,"['Cr', 'O']",68.0,-482.1972026,0.0,0.0,
9568,Cr5S8,mp-1181961,Cr5S8,"['Cr', 'S']",13.0,-90.06377956,0.016409540916841436,0.0,
15770,Cr5Se8,mp-1104327,Cr5Se8,"['Cr', 'Se']",13.0,-83.01634149,0.0006574285787257494,0.0,
10688,Cr5Te8,mp-1213754,Cr5Te8,"['Cr', 'Te']",13.0,-76.20944673,0.001708588940805278,0.0,
12689,C24Cr56,mp-1196316,Cr7C3,"['Cr', 'C']",80.0,-770.00105555,0.00020576924804593943,0.0,
6548,Cr8Cu3Ni1S16,mp-1226091,Cr8Cu3NiS16,"['Cr', 'Cu', 'Ni', 'S']",28.0,-179.05244779,0.007399996967075495,0.0,
18560,Ag2Cr2P4S12,mp-557592,CrAg(PS3)2,"['Cr', 'Ag', 'P', 'S']",20.0,-103.19536912,0.00035285442480414986,0.0,
10957,Ag1Cr1P2Se6,mp-1226281,CrAg(PSe3)2,"['Cr', 'Ag', 'P', 'Se']",10.0,-46.6743641,9.410452636782196e-05,0.0,
20983,Ag2Cr2O4,mp-19378,CrAgO2,"['Cr', 'Ag', 'O']",8.0,-51.51569514,0.0,0.0,
5951,Ag1Cr1Se2,mp-3532,CrAgSe2,"['Cr', 'Ag', 'Se']",4.0,-20.92810077,0.02094484877502456,0.0,
31781,Ag2Cr2S8Sn2,mp-1226291,CrAgSnS4,"['Cr', 'Ag', 'Sn', 'S']",14.0,-72.7090435,0.00027385295758897144,-4.440892098500626e-15,
3987,Ag2Cr2Se8Sn2,mp-1226303,CrAgSnSe4,"['Cr', 'Ag', 'Sn', 'Se']",14.0,-66.45222054,0.00017802504464281554,0.0,
374,As4Cr4,mp-20717,CrAs,"['Cr', 'As']",8.0,-58.77757399,7.469366333001659e-05,0.0,
26594,As6Cr6O24,mp-1204934,CrAsO4,"['Cr', 'As', 'O']",36.0,-247.0080404,0.00016306234808283193,-7.105427357601002e-15,
21943,Au2Cr2O4,mp-996996,CrAuO2,"['Cr', 'Au', 'O']",8.0,-51.8816156,0.0,0.0,
4942,Au1Cr1S2,mp-7113,CrAuS2,"['Cr', 'Au', 'S']",4.0,-23.23684354,0.0006942968847658548,0.0,
6878,B4Cr4,mp-1080664,CrB,"['Cr', 'B']",8.0,-69.56548381,0.0004433689648433159,0.0,
13905,B8Cr2,mp-1078278,CrB4,"['Cr', 'B']",10.0,-75.83150834,0.0,0.0,
26642,B2Cr2O6,mp-19299,CrBO3,"['Cr', 'B', 'O']",10.0,-80.43383028,2.1635085937887766e-05,0.0,
14642,B4Cr4O16Pb4,mp-21100,CrBPbO4,"['Cr', 'B', 'Pb', 'O']",28.0,-205.91944499,0.0027518600111609004,0.0,
20875,Bi4Cr4O24Te4,mp-1226306,CrBiTeO6,"['Cr', 'Bi', 'Te', 'O']",36.0,-228.13674426,3.552713678800501e-15,0.0,
14881,Br6Cr2,mp-27734,CrBr3,"['Cr', 'Br']",8.0,-35.66300711,0.00025858314331017596,0.0,
13023,Cd1Cr1F6,mp-559161,CrCdF6,"['Cr', 'Cd', 'F']",8.0,-38.19116603,0.000464414707031402,0.0,
3222,Cd2Cr2O8,mp-18781,CrCdO4,"['Cr', 'Cd', 'O']",12.0,-70.89144956,7.855270182766105e-06,0.0,
8132,Cl6Cr2,mp-567504,CrCl3,"['Cr', 'Cl']",8.0,-39.46683261,6.58685131842418e-05,0.0,
7737,Cl2Cr2O2,mp-22946,CrClO,"['Cr', 'Cl', 'O']",6.0,-38.44296688,0.0,0.0,
30526,Co2Cr2O8,mp-18788,CrCoO4,"['Cr', 'Co', 'O']",12.0,-79.17128818,0.00479604898437902,0.0,
18876,Co4Cr4P4,mp-1102834,CrCoP,"['Cr', 'Co', 'P']",12.0,-95.5479802,3.1241878255983124e-05,0.0,
12046,Cr4Cu4P8S24,mp-572465,CrCu(PS3)2,"['Cr', 'Cu', 'P', 'S']",40.0,-211.76377433,0.00020778408396537884,0.0,
1746,Cr1Cu1P2Se6,mp-1226296,CrCu(PSe3)2,"['Cr', 'Cu', 'P', 'Se']",10.0,-47.72583608,0.006089573660970515,0.0,