,Composition,MaterialId,Reduced Formula,Elements,NSites,Corrected Energy,Decomposition Energy Per Atom All,Decomposition Energy Per Atom MP,Directory
7082,Ba6Eu2O18Ru4,mp-556259,Ba3EuRu2O9,"['Ba', 'Eu', 'Ru', 'O']",30.0,-221.07392748,0.06160884230078434,0.0,
20863,Ba6Fe4O18Te2,mp-1228445,Ba3Fe2TeO9,"['Ba', 'Fe', 'Te', 'O']",30.0,-189.71371103,0.00028747250260430235,0.0,
10302,Ba6Fe4O18W2,mp-1228376,Ba3Fe2WO9,"['Ba', 'Fe', 'W', 'O']",30.0,-205.79002335,0.000321173977864575,0.0,
967,Ba3Fe4O28P8Pb1,mp-1228512,Ba3Fe4P8PbO28,"['Ba', 'Fe', 'P', 'Pb', 'O']",44.0,-316.34963411,0.0006446904154824296,0.0,
21369,Ba6Fe2N6,mp-8306,Ba3FeN3,"['Ba', 'Fe', 'N']",14.0,-86.28070519,0.00031196449079207156,0.0,
22650,Ba6Fe2O18Ru4,mp-1214638,Ba3FeRu2O9,"['Ba', 'Fe', 'Ru', 'O']",30.0,-205.01761581,0.00014135857942854102,0.0,
13185,B20Ba6Ga4H8O46,mp-1229265,Ba3Ga2B10H4O23,"['Ba', 'Ga', 'B', 'H', 'O']",84.0,-607.83839211,0.005071451582962183,1.0835776720341528e-13,
3677,Ba18Ga18P30,mp-1196108,Ba3Ga3P5,"['Ba', 'Ga', 'P']",66.0,-302.29336604,0.0,-4.440892098500626e-15,
25297,Ba6Ga8O18,mp-771132,Ba3Ga4O9,"['Ba', 'Ga', 'O']",32.0,-198.34719834,0.002223889155272829,0.0,
15610,As24Ba24Ga8,mp-1195592,Ba3GaAs3,"['Ba', 'Ga', 'As']",56.0,-238.38233631,0.0,0.0,
10181,Ba6Ga2N6,mp-1029573,Ba3GaN3,"['Ba', 'Ga', 'N']",14.0,-74.4579126,0.0,0.0,
23694,Ba12Ga4P12,mp-541715,Ba3GaP3,"['Ba', 'Ga', 'P']",28.0,-126.63601244,0.001510232506976017,0.0,
26439,Ba12Br4Ga4S16,mp-1204726,Ba3GaS4Br,"['Ba', 'Ga', 'S', 'Br']",36.0,-172.31061362,7.671856336788352e-05,0.0,
15728,Ba12Cl4Ga4S16,mp-1198976,Ba3GaS4Cl,"['Ba', 'Ga', 'S', 'Cl']",36.0,-174.93450878,0.0,0.0,
13332,Ba24Ga8Sb24,mp-28296,Ba3GaSb3,"['Ba', 'Ga', 'Sb']",56.0,-220.03600564,0.0,0.0,
16217,B6Ba3Ge2O16,mp-1194165,Ba3Ge2(B3O8)2,"['Ba', 'Ge', 'B', 'O']",27.0,-201.35455434,0.0,0.0,
6071,Ba12Ge4O4,mp-17833,Ba3GeO,"['Ba', 'Ge', 'O']",20.0,-87.35965644,0.0,0.0,
17967,Ba12Ge4O20,mp-778602,Ba3GeO5,"['Ba', 'Ge', 'O']",36.0,-229.46589805,0.0,0.0,
23507,Ba12Ge4S20,mp-1200759,Ba3GeS5,"['Ba', 'Ge', 'S']",36.0,-181.23973572,0.0,0.0,
6435,Ba3Hf2O7,mp-754128,Ba3Hf2O7,"['Ba', 'Hf', 'O']",12.0,-99.21424439,0.00011463884602846974,0.0,
23804,B18Ba18Ho6O54,mp-14384,Ba3Ho(BO3)3,"['Ba', 'Ho', 'B', 'O']",96.0,-729.75605952,0.0007850893811038873,0.0,
15926,Ba12Ho8P16S64,mp-559171,Ba3Ho2(PS4)4,"['Ba', 'Ho', 'P', 'S']",100.0,-527.90668106,0.0,0.0,
3140,Ba6Ho4Mo2O18,mp-1228250,Ba3Ho2MoO9,"['Ba', 'Ho', 'Mo', 'O']",30.0,-218.22754315,0.001130682434896002,0.0,
13632,Ba6Ho2O18Ru4,mp-1214536,Ba3HoRu2O9,"['Ba', 'Ho', 'Ru', 'O']",30.0,-213.66625255,3.626347005170061e-05,0.0,
15715,B6Ba6In2O18,mp-866313,Ba3In(BO3)3,"['Ba', 'In', 'B', 'O']",32.0,-228.90616831,0.000856961076659779,0.0,
8679,Ba12H48In8O48,mp-740719,Ba3In2(HO)12,"['Ba', 'In', 'H', 'O']",116.0,-623.82152089,0.00036853539736014795,0.0,
17088,Ba6In4O32P8,mp-1200796,Ba3In2(PO4)4,"['Ba', 'In', 'P', 'O']",50.0,-348.66367361,0.0020147895187374587,0.0,
25550,Ba6F24In4,mp-28274,Ba3In2F12,"['Ba', 'In', 'F']",34.0,-178.76214279,0.0,0.0,
9906,Ba3In2Mo1O9,mp-1228643,Ba3In2MoO9,"['Ba', 'In', 'Mo', 'O']",15.0,-95.07189953,0.011143374025403219,0.0,
28243,Ba3In2O6,mp-20352,Ba3In2O6,"['Ba', 'In', 'O']",11.0,-64.36190968,0.00025453770241501417,0.0,
14263,Ba6In4O18W2,mp-1228476,Ba3In2WO9,"['Ba', 'In', 'W', 'O']",30.0,-194.56465968,9.447795182282448e-05,0.0,
5434,As12Ba12In4,mp-620346,Ba3InAs3,"['Ba', 'In', 'As']",28.0,-117.34298098,0.000356346399972729,1.7763568394002505e-15,
26357,Ba6In2Ir4O18,mp-1214916,Ba3InIr2O9,"['Ba', 'In', 'Ir', 'O']",30.0,-193.54057312,0.0028230407753762066,0.0,
4607,Ba6In2O18Ru4,mp-22352,Ba3InRu2O9,"['Ba', 'In', 'Ru', 'O']",30.0,-198.68468094,0.001685116534453357,0.0,
29535,Ba6C6Ir2N6,mp-1106080,Ba3Ir(CN)3,"['Ba', 'Ir', 'C', 'N']",20.0,-146.88093476,9.390531054709328e-05,0.0,
5143,Ba6Ir2N6,mp-1029626,Ba3IrN3,"['Ba', 'Ir', 'N']",14.0,-85.13413099,0.05349317144415,0.0,
14788,Ba6C10F4La4O30,mp-581361,Ba3La2C5O15F2,"['Ba', 'La', 'C', 'O', 'F']",54.0,-413.19391131,9.730032118149268e-05,0.0,
7486,Ba6Ir4La2O18,mp-561089,Ba3LaIr2O9,"['Ba', 'La', 'Ir', 'O']",30.0,-208.27903218,0.0,0.0,
20042,Ba6La2O18Ru4,mp-558624,Ba3LaRu2O9,"['Ba', 'La', 'Ru', 'O']",30.0,-212.73287495,2.6006712239734497e-05,0.0,
13970,Ba6Ir4Li2O18,mp-554837,Ba3LiIr2O9,"['Ba', 'Li', 'Ir', 'O']",30.0,-192.99141709,0.0030758227486948897,0.0,
23883,Ba6Li2O18Os4,mp-542207,Ba3LiOs2O9,"['Ba', 'Li', 'Os', 'O']",30.0,-207.92912062,0.0011103185260417092,0.0,
19327,Ba6Li2O18Ru4,mp-542122,Ba3LiRu2O9,"['Ba', 'Li', 'Ru', 'O']",30.0,-198.09225576,0.0013329826419266055,0.0,
6518,B18Ba18Lu6O54,mp-14386,Ba3Lu(BO3)3,"['Ba', 'Lu', 'B', 'O']",96.0,-730.80874883,0.0006676210843918895,0.0,
2604,Ba3Lu2Mo1O9,mp-1228133,Ba3Lu2MoO9,"['Ba', 'Lu', 'Mo', 'O']",15.0,-109.68682976,0.00012569666406214708,0.0,
23870,Ba3Lu4O9,mp-542832,Ba3Lu4O9,"['Ba', 'Lu', 'O']",16.0,-120.5699293,0.0071912054016110005,0.0,
14178,Ba6Ir4Lu2O18,mp-556674,Ba3LuIr2O9,"['Ba', 'Lu', 'Ir', 'O']",30.0,-209.57000386,0.0004038752395825185,0.0,
3924,Ba6Lu2O18Ru4,mp-555246,Ba3LuRu2O9,"['Ba', 'Lu', 'Ru', 'O']",30.0,-214.18137597,0.0,0.0,
6413,Ba6Ir4Mg2O18,mp-554909,Ba3MgIr2O9,"['Ba', 'Mg', 'Ir', 'O']",30.0,-196.46424891,-1.2434497875801753e-14,-6.217248937900877e-15,
9452,Ba3Mg1Nb2O9,mp-6474,Ba3MgNb2O9,"['Ba', 'Mg', 'Nb', 'O']",15.0,-114.9293676,0.0,0.0,
26333,Ba6Mg2O18Ru4,mp-6520,Ba3MgRu2O9,"['Ba', 'Mg', 'Ru', 'O']",30.0,-201.44944965,0.0,3.552713678800501e-15,
22125,Ba6Mg2O18Sb4,mp-16978,Ba3MgSb2O9,"['Ba', 'Mg', 'Sb', 'O']",30.0,-188.91403525,0.0,0.0,
5019,Ba3Mg1O9Ta2,mp-6325,Ba3MgTa2O9,"['Ba', 'Mg', 'Ta', 'O']",15.0,-120.66555818,0.0,0.0,
30052,Ba6Mn4O16,mp-19188,Ba3Mn2O8,"['Ba', 'Mn', 'O']",26.0,-172.77898947,0.0,1.3322676295501878e-14,
884,Ba6Mn2N6,mp-9324,Ba3MnN3,"['Ba', 'Mn', 'N']",14.0,-89.05767418,0.0,0.0,
3265,Ba12Mn4Nb8O36,mp-20921,Ba3MnNb2O9,"['Ba', 'Mn', 'Nb', 'O']",60.0,-474.85675598,0.0,-3.552713678800501e-15,
16969,Ba6Mn2O18Sb4,mp-17341,Ba3MnSb2O9,"['Ba', 'Mn', 'Sb', 'O']",30.0,-196.56528911,0.0,0.0,
21934,Ba6Mo4O36P8,mp-554339,Ba3Mo2(P2O9)2,"['Ba', 'Mo', 'P', 'O']",54.0,-392.75271046,4.773381365730245e-05,-2.842170943040401e-14,
4818,Ba24Mo8N32,mp-8863,Ba3MoN4,"['Ba', 'Mo', 'N']",64.0,-453.49234564,0.0,0.0,
3131,Ba6N2,mp-10736,Ba3N,"['Ba', 'N']",8.0,-30.67132584,0.0,0.0,
24320,Ba6Cr8F40Na4,mp-558077,Ba3Na2Cr4F20,"['Ba', 'Na', 'Cr', 'F']",58.0,-335.92876015,0.00018252216460190596,0.0,
28517,Ba6C10Na6O30,mp-1214668,Ba3Na3(CO3)5,"['Ba', 'Na', 'C', 'O']",52.0,-363.06739622,0.0001901953260210476,0.0,
15491,Ba6Bi2Na2O12,mp-556316,Ba3NaBiO6,"['Ba', 'Na', 'Bi', 'O']",22.0,-126.7000416,0.0003192483398439805,-5.329070518200751e-15,
28439,Ba6Eu6Na2O40Si12,mp-1098017,Ba3NaEu3(Si3O10)2,"['Ba', 'Na', 'Eu', 'Si', 'O']",66.0,-528.7535619,0.016654032848997247,0.0,
10943,Ba6Gd6Na2O40Si12,mp-1194728,Ba3NaGd3(Si3O10)2,"['Ba', 'Na', 'Gd', 'Si', 'O']",66.0,-563.83326453,-1.5987211554602254e-14,0.0,
764,Ba6Ir4Na2O18,mp-21876,Ba3NaIr2O9,"['Ba', 'Na', 'Ir', 'O']",30.0,-190.83170613,0.0,0.0,
7530,Ba6Ir2Na2O12,mp-9746,Ba3NaIrO6,"['Ba', 'Na', 'Ir', 'O']",22.0,-135.23213428,0.00028996126065372607,0.0,
3114,Ba6N2Na2,mp-8868,Ba3NaN,"['Ba', 'Na', 'N']",10.0,-33.47154647,0.0004684273408201989,0.0,
8501,Ba6Na2Nb2O12,mp-8960,Ba3NaNbO6,"['Ba', 'Na', 'Nb', 'O']",22.0,-151.0207072,0.00023938885831231715,0.0,
13597,Ba6Na2Nd6O40Si12,mp-559502,Ba3NaNd3(Si3O10)2,"['Ba', 'Na', 'Nd', 'Si', 'O']",66.0,-507.28128114,6.211696022973001e-05,0.0,
3995,Ba6Na2O18Os4,mp-542208,Ba3NaOs2O9,"['Ba', 'Na', 'Os', 'O']",30.0,-205.80553937,0.0003005960325657142,0.0,
3856,Ba6Na2O18Ru4,mp-542123,Ba3NaRu2O9,"['Ba', 'Na', 'Ru', 'O']",30.0,-195.64167835,0.00038136375653508026,4.884981308350689e-14,
14809,Ba6Na2O12Ru2,mp-9745,Ba3NaRuO6,"['Ba', 'Na', 'Ru', 'O']",22.0,-137.67685743,0.00028207083096543073,0.0,
18314,Ba6Na2O12Sb2,mp-1190024,Ba3NaSbO6,"['Ba', 'Na', 'Sb', 'O']",22.0,-131.86177655,0.00031060514914837967,0.0,
88,Ba6Na2O12Ta2,mp-8961,Ba3NaTaO6,"['Ba', 'Na', 'Ta', 'O']",22.0,-156.77868824,0.0002872144549002087,0.0,
21898,Ba6Na2O40Si12Y6,mp-1019523,Ba3NaY3(Si3O10)2,"['Ba', 'Na', 'Y', 'Si', 'O']",66.0,-519.08790422,6.79314441285328e-05,0.0,
24821,Ba3Nb16O23,mp-5360,Ba3Nb16O23,"['Ba', 'Nb', 'O']",42.0,-378.55245501,2.6147920387131762e-05,-6.750155989720952e-14,
8500,Ba3Cd1Nb2O9,mp-1214502,Ba3Nb2CdO9,"['Ba', 'Nb', 'Cd', 'O']",15.0,-110.5593295,0.0,0.0,
19061,Ba3Co1Nb2O9,mp-31514,Ba3Nb2CoO9,"['Ba', 'Nb', 'Co', 'O']",15.0,-115.09923703,-7.105427357601002e-15,0.0,
26568,Ba12Nb8Ni4O36,mp-1214516,Ba3Nb2NiO9,"['Ba', 'Nb', 'Ni', 'O']",60.0,-450.93474985,0.0,0.0,
1388,Ba3Nb2O8,mp-542201,Ba3Nb2O8,"['Ba', 'Nb', 'O']",13.0,-102.42703604,3.980206129838848e-05,0.0,
16702,Ba3Nb2O9Zn1,mp-7249,Ba3Nb2ZnO9,"['Ba', 'Nb', 'Zn', 'O']",15.0,-111.63756868,2.1462760368962108e-07,0.0,
13087,Ba3Nb6O26Si4,mp-6101,Ba3Nb6(Si2O13)2,"['Ba', 'Nb', 'Si', 'O']",39.0,-325.34662973,0.0,0.0,
17539,As12Ba12Nb4O4,mp-18177,Ba3NbAs3O,"['Ba', 'Nb', 'As', 'O']",32.0,-184.95813187,0.0,0.0,
28963,Ba3Ga3Nb1O14Si2,mp-12881,Ba3NbGa3(SiO7)2,"['Ba', 'Nb', 'Ga', 'Si', 'O']",23.0,-165.03565885,0.0,0.0,
24893,Ba6Ir4Nd2O18,mp-1214535,Ba3NdIr2O9,"['Ba', 'Nd', 'Ir', 'O']",30.0,-207.53358282,0.0006474509218747926,-5.240252676230739e-14,
12151,Ba6Nd2O18Ru4,mp-6018,Ba3NdRu2O9,"['Ba', 'Nd', 'Ru', 'O']",30.0,-212.06277117,3.868235416693011e-05,0.0,
20019,Ba12Ir8Ni4O36,mp-540907,Ba3NiIr2O9,"['Ba', 'Ni', 'Ir', 'O']",60.0,-383.0247079,0.0,0.0,
361,Ba6Ni2O18Ru4,mp-22363,Ba3NiRu2O9,"['Ba', 'Ni', 'Ru', 'O']",30.0,-197.37802182,0.0,3.552713678800501e-15,
5620,Ba12Ni4O36Sb8,mp-17269,Ba3NiSb2O9,"['Ba', 'Ni', 'Sb', 'O']",60.0,-367.93098787,0.003766251810543686,-6.217248937900877e-15,
19261,Ba6N6Os2,mp-1029640,Ba3OsN3,"['Ba', 'Os', 'N']",14.0,-90.78740538,0.00035980771344945595,0.0,
6963,Ba6P28,mp-1195,Ba3P14,"['Ba', 'P']",34.0,-180.35384424,0.0,0.0,
7829,Ba24P16,mp-32606,Ba3P2,"['Ba', 'P']",40.0,-171.9485582,0.0008935126513671676,0.0,
27599,Ba12Cl4O40P12,mp-1194911,Ba3P3ClO10,"['Ba', 'P', 'Cl', 'O']",68.0,-476.90691844,0.0004915343152571694,0.0,
26085,Ba12I8P12,mp-30220,Ba3P3I2,"['Ba', 'P', 'I']",32.0,-140.80177888,0.0025863737063032133,0.0,
4501,Ba6P8,mp-14289,Ba3P4,"['Ba', 'P']",14.0,-68.11651162,0.0,-4.440892098500626e-15,
4295,Ba3N8O6P6,mp-1019524,Ba3P6(N4O3)2,"['Ba', 'P', 'N', 'O']",23.0,-171.01818627,0.0,0.0,
9016,Ba6Pb10,mp-630923,Ba3Pb5,"['Ba', 'Pb']",16.0,-56.7385793,0.0,0.0,
23486,Ba3O1Pb1,mp-29242,Ba3PbO,"['Ba', 'Pb', 'O']",5.0,-21.19247053,8.665266699203755e-05,0.0,
23600,Ba6Ir4O18Pr2,mp-1214562,Ba3PrIr2O9,"['Ba', 'Pr', 'Ir', 'O']",30.0,-207.15892776,0.0010123363854157574,0.0,
1189,Ba6O18Pr2Ru4,mp-16821,Ba3PrRu2O9,"['Ba', 'Pr', 'Ru', 'O']",30.0,-211.69927751,1.931411979061437e-05,5.3290705182007514e-14,
19989,Ba3O6Pu1,mp-1205571,Ba3PuO6,"['Ba', 'Pu', 'O']",10.0,-76.02740303,0.10950923618459285,0.0,
2482,Ba3O9Re2,mp-38972,Ba3Re2O9,"['Ba', 'Re', 'O']",14.0,-106.61402646,0.0,-3.552713678800501e-15,
7668,Ba6N6Re2,mp-1245965,Ba3ReN3,"['Ba', 'Re', 'N']",14.0,-95.23655402,0.0005572942954792381,0.0,
9681,Ba6C6N6Rh2,mp-1105268,Ba3Rh(CN)3,"['Ba', 'Rh', 'C', 'N']",20.0,-143.19898173,0.0009144266835932058,0.0,
17295,Ba6N6Ru2,mp-1029537,Ba3RuN3,"['Ba', 'Ru', 'N']",14.0,-86.4509566,0.0,0.0,
18203,Ba12O4Sb8,mp-29911,Ba3Sb2O,"['Ba', 'Sb', 'O']",24.0,-111.77672581,0.0,0.0,
2736,Ba12S28Sb8,mp-1195624,Ba3Sb2S7,"['Ba', 'Sb', 'S']",48.0,-230.59524536,0.0005626602449453344,0.0,
12021,Ba12Sb8Se28,mp-1194583,Ba3Sb2Se7,"['Ba', 'Sb', 'Se']",48.0,-210.10568175,0.00028459702555316824,-1.687538997430238e-14,
30139,Ba12O4Sb16,mp-555414,Ba3Sb4O,"['Ba', 'Sb', 'O']",32.0,-146.68447318,0.00029699596191434807,-1.7763568394002505e-15,
13557,Ba12I12Sb4,mp-1214632,Ba3SbI3,"['Ba', 'Sb', 'I']",28.0,-102.34781874,0.00014957703473772455,0.0,
2056,Ba6N2Sb2,mp-12814,Ba3SbN,"['Ba', 'Sb', 'N']",10.0,-44.59853707,0.002079328278320247,0.0,
10870,B18Ba18O54Sc6,mp-14972,Ba3Sc(BO3)3,"['Ba', 'Sc', 'B', 'O']",96.0,-737.95876508,0.0,0.0,
5649,Ba6C2F14O6Sc2,mp-560519,Ba3ScCO3F7,"['Ba', 'Sc', 'C', 'O', 'F']",30.0,-200.00738926,5.339282552085933e-06,0.0,
28259,B6Ba3O16Si2,mp-1019526,Ba3Si2(B3O8)2,"['Ba', 'Si', 'B', 'O']",27.0,-209.96063526,1.079169415518777e-05,0.0,
7294,Ba12Si16,mp-1619,Ba3Si4,"['Ba', 'Si']",28.0,-121.25935386,6.396780343198571e-05,0.0,
16212,Ba3N2O12Si6,mp-985697,Ba3Si6(NO6)2,"['Ba', 'Si', 'N', 'O']",23.0,-176.05781862,0.0,0.0,
7187,Ba3N4O9Si6,mp-554885,Ba3Si6N4O9,"['Ba', 'Si', 'N', 'O']",22.0,-168.97495476,0.0,0.0,
18326,Ba12I8Si4,mp-569842,Ba3SiI2,"['Ba', 'Si', 'I']",24.0,-84.10217093,0.0,0.0,
14908,Ba12O4Si4,mp-755363,Ba3SiO,"['Ba', 'Si', 'O']",20.0,-88.39266958,0.00043548767480405814,0.0,
11848,Ba12S20Si4,mp-27805,Ba3SiS5,"['Ba', 'Si', 'S']",36.0,-189.57062994,0.0,0.0,
16751,B24Ba3Sm1,mp-1228060,Ba3SmB24,"['Ba', 'Sm', 'B']",28.0,-182.66125906,0.0,0.0,
17188,Ba6In2S12Sm2,mp-1191360,Ba3SmInS6,"['Ba', 'Sm', 'In', 'S']",22.0,-115.18614694,0.0,0.0,
6471,Ba6Ir4O18Sm2,mp-1205402,Ba3SmIr2O9,"['Ba', 'Sm', 'Ir', 'O']",30.0,-208.0919485,0.0,0.0,
21532,Ba6O18Ru4Sm2,mp-6077,Ba3SmRu2O9,"['Ba', 'Sm', 'Ru', 'O']",30.0,-212.62028791,0.0,0.0,
4012,Ba6O14Sn4,mp-770846,Ba3Sn2O7,"['Ba', 'Sn', 'O']",24.0,-151.25892657,0.0012892025683592934,0.0,
11049,Ba12S28Sn8,mp-556291,Ba3Sn2S7,"['Ba', 'Sn', 'S']",48.0,-232.88011266,-8.881784197001252e-15,0.0,
21762,Ba6Sn10,mp-18636,Ba3Sn5,"['Ba', 'Sn']",16.0,-61.62469614,0.0,0.0,
11071,Ba3O1Sn1,mp-29243,Ba3SnO,"['Ba', 'Sn', 'O']",5.0,-21.68498339,9.291550585999175e-05,0.0,
668,Al4Ba3F4O16Sr9,mp-1228149,Ba3Sr9Al4(O4F)4,"['Ba', 'Sr', 'Al', 'O', 'F']",36.0,-233.1027302,0.0003116326280379056,0.0,
2223,Ba6Ir4O18Sr2,mp-554266,Ba3SrIr2O9,"['Ba', 'Sr', 'Ir', 'O']",30.0,-196.79043552,2.5859457006838227e-05,0.0,
3720,Ba6Nb4O18Sr2,mp-540949,Ba3SrNb2O9,"['Ba', 'Sr', 'Nb', 'O']",30.0,-229.90826045,6.157793619365748e-05,-3.552713678800501e-15,
28405,Ba6O18Ru4Sr2,mp-6641,Ba3SrRu2O9,"['Ba', 'Sr', 'Ru', 'O']",30.0,-201.67078389,0.0,0.0,
28119,Ba6O18Sb4Sr2,mp-555078,Ba3SrSb2O9,"['Ba', 'Sr', 'Sb', 'O']",30.0,-189.83258168,0.0,0.0,
566,Ba6O18Sr2Ta4,mp-540950,Ba3SrTa2O9,"['Ba', 'Sr', 'Ta', 'O']",30.0,-241.19753939,4.469936979134559e-05,0.0,
15122,Ba3Cd1O9Ta2,mp-554669,Ba3Ta2CdO9,"['Ba', 'Ta', 'Cd', 'O']",15.0,-116.30368927,0.0,0.0,
1683,Ba3Co1O9Ta2,mp-1214485,Ba3Ta2CoO9,"['Ba', 'Ta', 'Co', 'O']",15.0,-120.79652933,0.0,0.0,
7474,Ba12Mn4O36Ta8,mp-1214505,Ba3Ta2MnO9,"['Ba', 'Ta', 'Mn', 'O']",60.0,-497.74153992,0.0,0.0,
19401,Ba12Ni4O36Ta8,mp-32310,Ba3Ta2NiO9,"['Ba', 'Ta', 'Ni', 'O']",60.0,-473.74863688,7.24989401046372e-05,0.0,
1308,Ba12Se36Ta8,mp-1195068,Ba3Ta2Se9,"['Ba', 'Ta', 'Se']",56.0,-315.10298219,0.0003175046637888812,0.0,
28452,Ba3O9Ta2Zn1,mp-1214475,Ba3Ta2ZnO9,"['Ba', 'Ta', 'Zn', 'O']",15.0,-117.34104065,5.1851360669985525e-05,0.0,
25190,Ba6O42Ta8Ti8,mp-1228489,Ba3Ta4Ti4O21,"['Ba', 'Ta', 'Ti', 'O']",64.0,-572.03986188,0.0019921196299375055,0.0,
27347,Ba6O30Ta8Ti2,mp-1228225,Ba3Ta4TiO15,"['Ba', 'Ta', 'Ti', 'O']",46.0,-409.25079978,0.015679442569192403,0.0,
2889,Ba6O30Ta10,mp-15021,Ba3Ta5O15,"['Ba', 'Ta', 'O']",46.0,-415.91953605,0.0013862860065181337,0.0,
19243,Ba3O26Si4Ta6,mp-6169,Ba3Ta6(Si2O13)2,"['Ba', 'Ta', 'Si', 'O']",39.0,-343.26982863,1.752375801800099e-06,0.0,
4958,Ba6Fe4O42Ta12,mp-1228561,Ba3Ta6Fe2O21,"['Ba', 'Ta', 'Fe', 'O']",64.0,-560.96240087,0.01996744926025329,0.0,
6847,As12Ba12O4Ta4,mp-18090,Ba3TaAs3O,"['Ba', 'Ta', 'As', 'O']",32.0,-192.80728321,0.000409106993408237,0.0,
25701,Ba3Fe3O14Si2Ta1,mp-1190340,Ba3TaFe3(SiO7)2,"['Ba', 'Ta', 'Fe', 'Si', 'O']",23.0,-172.60096756,0.0010677466383892664,0.0,
13395,Ba18Cl12N18Ta6,mp-1195508,Ba3TaN3Cl2,"['Ba', 'Ta', 'N', 'Cl']",54.0,-362.73786,0.00012869122540504208,0.0,
28863,B18Ba6O36Tb2,mp-1214548,Ba3Tb(BO2)9,"['Ba', 'Tb', 'B', 'O']",62.0,-488.54286449,0.009813898751030337,0.0,
12844,Ba12P16S64Tb8,mp-554264,Ba3Tb2(PS4)4,"['Ba', 'Tb', 'P', 'S']",100.0,-528.88072165,2.900908593694851e-05,0.0,
29505,Ba6O18Tb4W2,mp-1228418,Ba3Tb2WO9,"['Ba', 'Tb', 'W', 'O']",30.0,-221.59416152,0.0002376905442726951,0.0,
7862,Ba6O18Ru4Tb2,mp-6345,Ba3TbRu2O9,"['Ba', 'Tb', 'Ru', 'O']",30.0,-213.3887423,0.0,0.0,
26097,Ba6O18Te4,mp-17009,Ba3Te2O9,"['Ba', 'Te', 'O']",28.0,-167.65305262,0.010351381299535944,0.0,
31482,Ba12Br8O32Te12,mp-1198919,Ba3Te3(BrO4)2,"['Ba', 'Te', 'Br', 'O']",64.0,-352.29629375,5.329070518200751e-15,0.0,
9326,Ba6O22Te8,mp-28102,Ba3Te4O11,"['Ba', 'Te', 'O']",36.0,-210.87967278,0.0,0.0,
3553,Ba3Se7Th1,mp-1095255,Ba3ThSe7,"['Ba', 'Th', 'Se']",11.0,-55.65892115,0.0,-4.440892098500626e-15,
8703,Ba3O40Ti20,mp-531527,Ba3Ti20O40,"['Ba', 'Ti', 'O']",63.0,-553.37476232,0.0003105760838302274,-1.5987211554602254e-14,
685,Ba6Fe4O18Ti2,mp-1228231,Ba3TiFe2O9,"['Ba', 'Ti', 'Fe', 'O']",30.0,-207.21837217,0.00012904941147162674,0.0,
20310,B18Ba6O36Tm2,mp-1214609,Ba3Tm(BO2)9,"['Ba', 'Tm', 'B', 'O']",62.0,-488.68514684,0.007288827718184621,0.0,
23990,B18Ba18O54Tm6,mp-14385,Ba3Tm(BO3)3,"['Ba', 'Tm', 'B', 'O']",96.0,-730.06751687,0.00024679285807405194,0.0,
19823,Ba3O9Tm4,mp-14322,Ba3Tm4O9,"['Ba', 'Tm', 'O']",16.0,-120.04286065,4.7649780272607245e-06,0.0,
15182,Ba6O18Ru4Tm2,mp-1214484,Ba3TmRu2O9,"['Ba', 'Tm', 'Ru', 'O']",30.0,-213.86001961,3.335512239566185e-05,0.0,
10653,Ag2Ba6S12U2,mp-1190457,Ba3UAgS6,"['Ba', 'U', 'Ag', 'S']",22.0,-125.27320133,0.0,0.0,
22739,Ba6Fe4O18U2,mp-1228523,Ba3UFe2O9,"['Ba', 'U', 'Fe', 'O']",30.0,-222.29137832,0.0,0.0,
17376,Ba6In4O18U2,mp-1228397,Ba3UIn2O9,"['Ba', 'U', 'In', 'O']",30.0,-210.94840079,7.244355597624264e-05,0.0,
16189,Ba6Mn2S12U2,mp-1190597,Ba3UMnS6,"['Ba', 'U', 'Mn', 'S']",22.0,-138.92119338,0.00011262002308232155,0.0,
16595,Ba3O8V2,mp-19365,Ba3V2O8,"['Ba', 'V', 'O']",13.0,-93.85825348,4.981331128917077e-06,0.0,
4305,Ba6O48P12V8,mp-1228744,Ba3V4(PO4)6,"['Ba', 'V', 'P', 'O']",74.0,-556.80673669,0.0011854364104735282,0.0,
19386,Ba6O26V8,mp-505392,Ba3V4O13,"['Ba', 'V', 'O']",40.0,-294.29558167,1.2637205079712999e-05,0.0,
26345,Ba6O28Pb2V8,mp-561403,Ba3V4PbO14,"['Ba', 'V', 'Pb', 'O']",44.0,-317.62457098,3.9541159446265794e-05,0.0,
6904,Ba6Cl4O10W2,mp-553883,Ba3WCl2O5,"['Ba', 'W', 'Cl', 'O']",22.0,-140.07814532,-2.5757174171303632e-14,0.0,
12913,Ba24N32W8,mp-14743,Ba3WN4,"['Ba', 'W', 'N']",64.0,-474.40171049,5.6336706535375924e-06,0.0,
4470,Ba6O12W2,mp-1228775,Ba3WO6,"['Ba', 'W', 'O']",20.0,-136.98912158,0.016209875589844103,0.0,
26279,B18Ba18O54Y6,mp-6310,Ba3Y(BO3)3,"['Ba', 'Y', 'B', 'O']",96.0,-740.020315,1.177917480532642e-05,0.0,
7996,B24Ba12O60Y8,mp-1019527,Ba3Y2(B2O5)3,"['Ba', 'Y', 'B', 'O']",104.0,-833.23413985,8.942395582955953e-05,0.0,
6000,Ba6Mo2O18Y4,mp-1228052,Ba3Y2MoO9,"['Ba', 'Y', 'Mo', 'O']",30.0,-224.32521545,0.0013646633736961178,0.0,
19343,Ba6O18W2Y4,mp-1228087,Ba3Y2WO9,"['Ba', 'Y', 'W', 'O']",30.0,-228.68732684,8.577281380262036e-05,0.0,
19559,Ba6Ir4O18Y2,mp-1205382,Ba3YIr2O9,"['Ba', 'Y', 'Ir', 'O']",30.0,-212.40289975,0.00021839700520231986,-1.3322676295501878e-14,
10681,Ba6O18Ru4Y2,mp-18701,Ba3YRu2O9,"['Ba', 'Y', 'Ru', 'O']",30.0,-216.97758383,2.7533531010703882e-14,0.0,
2453,Ba6O18Pt2Ru2Y2,mp-1228242,Ba3YRuPtO9,"['Ba', 'Y', 'Ru', 'Pt', 'O']",30.0,-207.64086671,0.004047157739567986,-6.217248937900877e-15,
22745,Ba3O14P2Te1Zn3,mp-1190416,Ba3Zn3Te(PO7)2,"['Ba', 'Zn', 'Te', 'P', 'O']",23.0,-143.64657489,0.00011797034816574126,0.0,
3481,Ba6In4O22Zn10,mp-560544,Ba3Zn5In2O11,"['Ba', 'Zn', 'In', 'O']",42.0,-220.56750011,4.072204241367672e-06,0.0,
30491,Ba3O20Si4Te1Zn6,mp-543034,Ba3Zn6Si4TeO20,"['Ba', 'Zn', 'Si', 'Te', 'O']",34.0,-212.69982787,0.0,0.0,
5628,B10Ba6O28P2Zn2,mp-1019525,Ba3ZnB5PO14,"['Ba', 'Zn', 'B', 'P', 'O']",48.0,-355.79498657,0.0,0.0,
29934,Ba6Ir4O18Zn2,mp-542939,Ba3ZnIr2O9,"['Ba', 'Zn', 'Ir', 'O']",30.0,-189.47608238,0.004021855236975291,0.0,
27658,Ba6O18Ru4Zn2,mp-17137,Ba3ZnRu2O9,"['Ba', 'Zn', 'Ru', 'O']",30.0,-194.84436567,0.0,2.6645352591003757e-15,
11708,Ba6O18Sb4Zn2,mp-1214487,Ba3ZnSb2O9,"['Ba', 'Zn', 'Sb', 'O']",30.0,-182.00444292,0.00031822346744725394,0.0,
1518,Ba3O7Zr2,mp-755895,Ba3Zr2O7,"['Ba', 'Zr', 'O']",12.0,-94.9132149,0.0010279646728523772,0.0,
19529,Ba12S28Zr8,mp-8570,Ba3Zr2S7,"['Ba', 'Zr', 'S']",48.0,-296.34376228,0.0017970947322529796,0.0,