,Composition,MaterialId,Reduced Formula,Elements,NSites,Corrected Energy,Decomposition Energy Per Atom All,Decomposition Energy Per Atom MP,Directory
25020,Fe2H16O20P4,mp-1205448,FeP2(H4O5)2,"['Fe', 'P', 'H', 'O']",42.0,-249.40746884,0.000128991300268666,4.529709940470639e-14,
3713,Fe4H4O28P8,mp-558841,FeP2HO7,"['Fe', 'P', 'H', 'O']",44.0,-302.1486716,5.246874112252442e-05,0.0,
4484,Fe4O28P8Pb4,mp-560012,FeP2PbO7,"['Fe', 'P', 'Pb', 'O']",44.0,-308.48991333,-7.105427357601002e-15,7.105427357601002e-15,
21300,Fe4H8O40P12,mp-735042,FeP3(HO5)2,"['Fe', 'P', 'H', 'O']",64.0,-432.6632172,0.0032351621582025203,0.0,
6520,Fe2H10N2O20P6,mp-696483,FeP3H5NO10,"['Fe', 'P', 'H', 'N', 'O']",40.0,-258.19238839,0.004019001187524296,0.0,
6281,Fe4P16,mp-570553,FeP4,"['Fe', 'P']",20.0,-127.92849967,2.963686132861909e-05,0.0,
26821,Fe4O44P16,mp-759361,FeP4O11,"['Fe', 'P', 'O']",64.0,-457.51137149,0.00027839804443363647,0.0,
9393,Fe1O24P6W3,mp-850225,FeP6(WO8)3,"['Fe', 'P', 'W', 'O']",34.0,-250.87176256,0.0002473184329616629,0.0,
3,Cl32Fe4P4,mp-540760,FePCl8,"['Fe', 'P', 'Cl']",40.0,-143.20790428,4.9383966803873136e-05,0.0,
21441,Br4C4Fe1H12P1,mp-1190395,FePH12(CBr)4,"['Fe', 'P', 'H', 'C', 'Br']",22.0,-105.7533313,1.3374968927948316e-05,0.0,
7104,C8Cl8Fe2H24P2,mp-1194875,FePH12(CCl)4,"['Fe', 'P', 'H', 'C', 'Cl']",44.0,-216.12293282,7.166176136408353e-05,0.0,
12847,Fe2H4O10P2,mp-1188668,FePH2O5,"['Fe', 'P', 'H', 'O']",18.0,-115.24002825,0.0009916149631328253,2.4868995751603507e-14,
26756,Fe4O16P4,mp-760343,FePO4,"['Fe', 'P', 'O']",24.0,-170.71227604,0.0,0.0,
31245,Fe4P4S4,mp-1101971,FePS,"['Fe', 'P', 'S']",12.0,-78.4696246,0.0012400947753903324,0.0,
130,Fe1Pd3,mp-21845,FePd3,"['Fe', 'Pd']",4.0,-24.44267198,0.0,0.0,
12900,Fe1Pt1,mp-2260,FePt,"['Fe', 'Pt']",2.0,-15.00514631,4.0389464111001416e-05,0.0,
20237,Fe1Pt3,mp-649,FePt3,"['Fe', 'Pt']",4.0,-27.37816386,0.0218583231774776,0.0,
24214,Fe1H8O12Re2,mp-1191971,FeRe2(H2O3)4,"['Fe', 'Re', 'H', 'O']",23.0,-147.64775292,0.008760279537630922,0.0,
1071,Fe1Rh1,mp-1918,FeRh,"['Fe', 'Rh']",2.0,-15.92202871,6.114665527690022e-06,0.0,
28132,Fe2Rh6,mp-1184368,FeRh3,"['Fe', 'Rh']",8.0,-61.36777666,0.00412442934082069,0.0,
31612,Fe2S2,mp-505531,FeS,"['Fe', 'S']",4.0,-27.23860197,0.00020176046020470295,0.0,
12908,Fe2S4,mp-1522,FeS2,"['Fe', 'S']",6.0,-36.56249509,5.884750813756057e-05,0.0,
12740,Cl28Fe4S4,mp-649334,FeSCl7,"['Fe', 'S', 'Cl']",36.0,-118.58603706,0.008276436375867835,-3.552713678800501e-15,
14108,Fe4O16S4,mp-19254,FeSO4,"['Fe', 'S', 'O']",24.0,-154.17569642,-3.552713678800501e-15,0.0,
8608,F4Fe4O16S4,mp-1103970,FeSO4F,"['Fe', 'S', 'O', 'F']",28.0,-170.97686961,0.0,0.0,
10762,Fe4O56P16Sb4,mp-1213459,FeSb(P2O7)2,"['Fe', 'Sb', 'P', 'O']",80.0,-558.98735284,0.006067464499980524,0.0,
10725,Fe2Sb4,mp-20714,FeSb2,"['Fe', 'Sb']",6.0,-33.62407018,0.00045659048339885544,0.0,
12010,Fe4Sb12,mp-971669,FeSb3,"['Fe', 'Sb']",16.0,-83.79626113,0.0,0.0,
3065,Fe1O24P6Sb3,mp-774425,FeSb3(PO4)6,"['Fe', 'Sb', 'P', 'O']",34.0,-233.10977827,0.0019620052998892135,2.6645352591003757e-14,
10467,Fe4O52Pb16Sb12,mp-1224890,FeSb3Pb4O13,"['Fe', 'Sb', 'Pb', 'O']",84.0,-506.06760305,-6.217248937900877e-15,0.0,
30942,Fe2O8Sb2,mp-674490,FeSbO4,"['Fe', 'Sb', 'O']",12.0,-76.78655062,0.0,0.0,
3850,Fe4S4Sb4,mp-27904,FeSbS,"['Fe', 'Sb', 'S']",12.0,-71.28476197,6.052060546046789e-06,0.0,
19482,Fe4Sb4Se4,mp-1103256,FeSbSe,"['Fe', 'Sb', 'Se']",12.0,-67.64255916,0.00012477479329398022,0.0,
6706,Fe4Sb4Te4,mp-1102580,FeSbTe,"['Fe', 'Sb', 'Te']",12.0,-64.5836441,0.0008454440592444712,0.0,
3971,Fe2Se2,mp-20311,FeSe,"['Fe', 'Se']",4.0,-25.01954042,0.0014978982348639036,0.0,
18489,Fe2Se4,mp-760,FeSe2,"['Fe', 'Se']",6.0,-33.05399009,0.0,0.0,
30945,Br14Fe2Se2,mp-607953,FeSeBr7,"['Fe', 'Se', 'Br']",18.0,-52.53342949,0.028201551601291452,0.0,
2973,Cl14Fe2Se2,mp-28189,FeSeCl7,"['Fe', 'Se', 'Cl']",18.0,-59.34963733,2.56109798177917e-05,-3.552713678800501e-15,
19858,F4Fe4O12Se4,mp-1190442,FeSeO3F,"['Fe', 'Se', 'O', 'F']",24.0,-136.38628071,0.00015737621907607746,0.0,
28264,Fe4Si4,mp-871,FeSi,"['Fe', 'Si']",8.0,-59.67319189,3.990229980477267e-05,0.0,
9629,Fe8Si16,mp-1714,FeSi2,"['Fe', 'Si']",24.0,-165.1965004,0.0,0.0,
12417,Fe4O44P12Si4,mp-541929,FeSiP3O11,"['Fe', 'Si', 'P', 'O']",64.0,-467.67093724,0.0028184646813960157,0.0,
952,Fe1Ru2Si1,mp-3464,FeSiRu2,"['Fe', 'Si', 'Ru']",4.0,-33.90918573,0.00015966033447334382,0.0,
17597,Fe1Si1Tc2,mp-862790,FeSiTc2,"['Fe', 'Si', 'Tc']",4.0,-35.759558,0.04231866254616001,0.0,
324,Fe3Sn3,mp-21260,FeSn,"['Fe', 'Sn']",6.0,-37.45512879,0.0009401438867184808,0.0,
30172,F24Fe4H48O24Sn4,mp-505108,FeSnH12(OF)6,"['Fe', 'Sn', 'H', 'O', 'F']",104.0,-522.09294635,0.0,0.0,
23222,Fe4O12Sn4,mp-1178212,FeSnO3,"['Fe', 'Sn', 'O']",20.0,-129.20214956,0.013637564419435755,0.0,
23669,Fe1Rh2Sn1,mp-1018062,FeSnRh2,"['Fe', 'Sn', 'Rh']",4.0,-28.41230368,7.873927124002478e-05,0.0,
26342,Fe2Te4,mp-19880,FeTe2,"['Fe', 'Te']",6.0,-30.59723645,6.356306152355273e-05,0.0,
15306,Br4Fe4O28Te12,mp-1201424,FeTe3BrO7,"['Fe', 'Te', 'Br', 'O']",48.0,-257.17212696,0.0005179187613926217,0.0,
812,Cl4Fe4O28Te12,mp-1201019,FeTe3ClO7,"['Fe', 'Te', 'Cl', 'O']",48.0,-259.20727145,0.0006594601481113571,0.0,
29563,Fe2O26Te12,mp-561036,FeTe6O13,"['Fe', 'Te', 'O']",40.0,-221.28300501,0.007993324151859937,0.0,
28609,As4Fe4Te4,mp-1102288,FeTeAs,"['Fe', 'Te', 'As']",12.0,-68.15594517,9.118313964862068e-05,0.0,
13170,Br14Fe2Te2,mp-540998,FeTeBr7,"['Fe', 'Te', 'Br']",18.0,-53.89253303,0.001122003636607083,0.0,
8802,Cl14Fe2Te2,mp-540997,FeTeCl7,"['Fe', 'Te', 'Cl']",18.0,-61.32739615,0.0012955643663157268,0.0,
23991,F4Fe4O12Te4,mp-558502,FeTeO3F,"['Fe', 'Te', 'O', 'F']",24.0,-138.63700775,1.2006184896051764e-05,0.0,
26223,Fe2O8W2,mp-19421,FeWO4,"['Fe', 'W', 'O']",12.0,-87.828352,0.0,0.0,
20779,Ga4,mp-142,Ga,['Ga'],4.0,-12.11238409,0.0028805113897703016,0.0,
8413,Ag36Ga4Se24,mp-27163,Ga(Ag3Se2)3,"['Ga', 'Ag', 'Se']",64.0,-209.10826428,0.0011010132183839616,0.0,
3128,Bi48Cl48Ga12,mp-569237,Ga(BiCl)4,"['Ga', 'Bi', 'Cl']",108.0,-381.94956254,-6.661338147750939e-15,-6.661338147750939e-15,
23267,Ga2I6O18,mp-561104,Ga(IO3)3,"['Ga', 'I', 'O']",26.0,-119.81424143,0.0002574613386503444,0.0,
11872,Ga6O54P18,mp-15560,Ga(PO3)3,"['Ga', 'P', 'O']",78.0,-545.97577022,1.3322676295501878e-14,1.3322676295501878e-14,
4006,Ga4Ni24Si8,mp-1225418,Ga(SiNi3)2,"['Ga', 'Si', 'Ni']",36.0,-211.88492941,0.00749526398763134,0.0,
11440,Ga10Ge1O20Pb3,mp-504827,Ga10GePb3O20,"['Ga', 'Ge', 'Pb', 'O']",34.0,-204.2337492,0.0,0.0,
15259,Ga68Rh40,mp-30665,Ga17Rh10,"['Ga', 'Rh']",108.0,-565.12003087,0.0,0.0,
14451,Ga16Mo24O96,mp-1213624,Ga2(MoO4)3,"['Ga', 'Mo', 'O']",136.0,-917.40331728,0.0013009687017468963,0.0,
30835,B6Ga2Ni21,mp-1193255,Ga2(Ni7B2)3,"['Ga', 'Ni', 'B']",29.0,-176.3260353,-8.881784197001252e-16,-8.881784197001252e-16,
20690,Ga4O24S6,mp-541451,Ga2(SO4)3,"['Ga', 'S', 'O']",34.0,-205.35822632,0.00013764859030374055,0.0,
20968,As2Ga4Rh10,mp-18561,Ga2AsRh5,"['Ga', 'As', 'Rh']",16.0,-103.32950288,0.0008363239825435187,0.0,
9022,Au1Ga2,mp-2776,Ga2Au,"['Ga', 'Au']",3.0,-10.04441906,0.0,0.0,
6437,Bi4Ga8S16,mp-556712,Ga2BiS4,"['Ga', 'Bi', 'S']",28.0,-122.57435386,4.055428152938134e-05,0.0,
15502,Bi4Ga8Se16,mp-571085,Ga2BiSe4,"['Ga', 'Bi', 'Se']",28.0,-110.88495368,7.019240652983427e-05,0.0,
19676,Co4Ga8O16,mp-765466,Ga2CoO4,"['Ga', 'Co', 'O']",28.0,-171.01324839,0.0,0.0,
1953,Cu1Ga2,mp-11359,Ga2Cu,"['Ga', 'Cu']",3.0,-10.40793342,0.011046665887857632,0.0,
4193,Cu4Ga8O48Se16,mp-1201552,Ga2Cu(SeO3)4,"['Ga', 'Cu', 'Se', 'O']",76.0,-412.36931029,0.0004721681363077934,0.0,
27379,Cu6Ga4O36Se12,mp-1203611,Ga2Cu3(SeO3)6,"['Ga', 'Cu', 'Se', 'O']",58.0,-309.75534225,-1.0658141036401503e-14,-1.0658141036401503e-14,
31400,Cl16Cu2Ga4,mp-29300,Ga2CuCl8,"['Ga', 'Cu', 'Cl']",22.0,-70.82874313,7.929453923960494e-05,-6.661338147750939e-15,
20224,Fe4Ga8O16,mp-690544,Ga2FeO4,"['Ga', 'Fe', 'O']",28.0,-175.05567527,0.006187269758649805,0.0,
12153,Cl32Ga8Hg12,mp-1203326,Ga2Hg3Cl8,"['Ga', 'Hg', 'Cl']",52.0,-133.33441083,4.217407376794213e-05,0.0,
26438,Ga2Hg1S4,mp-4809,Ga2HgS4,"['Ga', 'Hg', 'S']",7.0,-26.68978896,7.105427357601002e-15,0.0,
28735,Ga2Hg1Se4,mp-4730,Ga2HgSe4,"['Ga', 'Hg', 'Se']",7.0,-23.86934314,0.0,0.0,
28010,Ga2Hg1Te4,mp-16337,Ga2HgTe4,"['Ga', 'Hg', 'Te']",7.0,-21.04231774,0.0,0.0,
11650,Ga8I12,mp-636675,Ga2I3,"['Ga', 'I']",20.0,-51.13737637,0.012089480755371085,0.0,
9087,Ga12Ir6,mp-31253,Ga2Ir,"['Ga', 'Ir']",18.0,-97.48344711,0.00298717091796874,0.0,
23,Ga2Ir1Rh1,mp-865743,Ga2IrRh,"['Ga', 'Ir', 'Rh']",4.0,-24.4358035,0.004755713745117518,0.0,
12127,Ga2Ir1Ru1,mp-866041,Ga2IrRu,"['Ga', 'Ir', 'Ru']",4.0,-25.84385673,0.0033903325756838854,0.0,
300,Ga8Mo4O40Se8,mp-554901,Ga2Mo(SeO5)2,"['Ga', 'Mo', 'Se', 'O']",60.0,-358.52250739,3.778780338592469e-05,0.0,
31597,Ga8Ni4O16,mp-35236,Ga2NiO4,"['Ga', 'Ni', 'O']",28.0,-161.64670266,0.0,0.0,
28620,Ga4O6,mp-886,Ga2O3,"['Ga', 'O']",10.0,-60.36811681,0.0003146434628913397,0.0,
22848,Ga4H6O18P6,mp-24563,Ga2P3(HO3)3,"['Ga', 'P', 'H', 'O']",34.0,-210.96295514,0.006872915368376198,0.0,
15566,Ga4O8Pb2,mp-20496,Ga2PbO4,"['Ga', 'Pb', 'O']",14.0,-82.60563099,8.884041852752489e-05,0.0,
2518,Ga16Pb8S32,mp-1196984,Ga2PbS4,"['Ga', 'Pb', 'S']",56.0,-247.81721678,0.0003382614969318354,0.0,
18701,Ga16Pb8Se32,mp-571171,Ga2PbSe4,"['Ga', 'Pb', 'Se']",56.0,-223.28227272,0.0009387509542406747,0.0,
1593,Ga8Pd20,mp-405,Ga2Pd5,"['Ga', 'Pd']",28.0,-143.65671491,0.001434910517112975,0.0,
22768,Br8Ga2Pd1,mp-30945,Ga2PdBr8,"['Ga', 'Pd', 'Br']",11.0,-32.17375168,-5.773159728050814e-15,0.0,
15712,Ga2I8Pd1,mp-30946,Ga2PdI8,"['Ga', 'Pd', 'I']",11.0,-28.23526529,-1.3322676295501878e-15,-1.3322676295501878e-15,
15762,Ga2Pt1,mp-22095,Ga2Pt,"['Ga', 'Pt']",3.0,-13.87047368,0.0013034154638678075,0.0,
9333,Ga4Ru2,mp-1072429,Ga2Ru,"['Ga', 'Ru']",6.0,-33.14147783,8.865085123588301e-05,-8.881784197001252e-16,
17397,Ga2Rh1Ru1,mp-867292,Ga2RuRh,"['Ga', 'Ru', 'Rh']",4.0,-24.83611187,0.0026333713061523767,0.0,
21513,Ga4S6,mp-539,Ga2S3,"['Ga', 'S']",10.0,-43.55587149,0.0,0.0,
12087,Cl28Ga8Sb4Te16,mp-1195835,Ga2SbTe4Cl7,"['Ga', 'Sb', 'Te', 'Cl']",56.0,-183.71659406,0.0,0.0,
19606,Ga16O56Se16,mp-1196063,Ga2Se2O7,"['Ga', 'Se', 'O']",88.0,-491.8459013,5.329070518200751e-15,0.0,
8908,Ga4Se6,mp-1340,Ga2Se3,"['Ga', 'Se']",10.0,-38.93732305,0.0012480081103509733,0.0,
14996,Ga8S20Sn8,mp-14280,Ga2Sn2S5,"['Ga', 'Sn', 'S']",36.0,-160.04996429,0.0017879826399740395,0.0,
16361,Br28Ga8Te8,mp-570186,Ga2Te2Br7,"['Ga', 'Te', 'Br']",44.0,-124.68418398,0.0001047469699932968,0.0,
28269,Cl28Ga8Te8,mp-542662,Ga2Te2Cl7,"['Ga', 'Te', 'Cl']",44.0,-140.76083161,0.0001294318483662238,0.0,
25228,Ga8Mo4O40Te8,mp-558386,Ga2Te2MoO10,"['Ga', 'Te', 'Mo', 'O']",60.0,-362.74216112,3.696717317680509e-05,0.0,
12227,Ga4Te6,mp-38970,Ga2Te3,"['Ga', 'Te']",10.0,-34.19230251,0.0,0.0,
635,Ga2Te5,mp-2371,Ga2Te5,"['Ga', 'Te']",7.0,-23.45019209,0.0,0.0,
24031,Ga4O12Te2,mp-28931,Ga2TeO6,"['Ga', 'Te', 'O']",18.0,-104.24720318,0.0,0.0,
9754,Ga4S4Te2,mp-27255,Ga2TeS2,"['Ga', 'Te', 'S']",10.0,-40.62401924,0.00020593122460965674,0.0,
31810,Ga4Se4Te2,mp-28423,Ga2TeSe2,"['Ga', 'Te', 'Se']",10.0,-37.52875114,0.0,0.0,
30937,B6Ga3Ni20,mp-977324,Ga3(Ni10B3)2,"['Ga', 'Ni', 'B']",29.0,-174.34958984,0.0,0.0,
13000,Ga62Mo12,mp-1203833,Ga31Mo6,"['Ga', 'Mo']",74.0,-327.94725945,0.005154171182746303,0.0,
24359,B8Ga6Pt18,mp-28869,Ga3B4Pt9,"['Ga', 'B', 'Pt']",32.0,-193.42518761,0.0001930736498998442,-2.6645352591003757e-15,
30094,Bi10Cl24Ga6,mp-569854,Ga3Bi5Cl12,"['Ga', 'Bi', 'Cl']",40.0,-135.88118887,0.007871577787064599,0.0,
22497,Co4Ga12,mp-20559,Ga3Co,"['Ga', 'Co']",16.0,-69.06463712,0.00044721765869137897,0.0,
27536,Fe4Ga12,mp-636368,Ga3Fe,"['Ga', 'Fe']",16.0,-74.02919141,0.0,0.0,
26505,Co8Fe4Ga3Si1,mp-1225352,Ga3Fe4Co8Si,"['Ga', 'Fe', 'Co', 'Si']",16.0,-109.74318745,3.673865966824508e-05,0.0,
29466,Ga9Ge18Ni39,mp-30029,Ga3Ni13Ge6,"['Ga', 'Ni', 'Ge']",66.0,-358.33338678,0.0,0.0,
29165,Ga3Ni2,mp-11397,Ga3Ni2,"['Ga', 'Ni']",5.0,-22.68655842,0.001820624959960604,0.0,
2402,B28Ga6Ni54,mp-1204832,Ga3Ni27B14,"['Ga', 'Ni', 'B']",88.0,-545.47969194,0.0,0.0,
17063,Ga3Ni5,mp-11398,Ga3Ni5,"['Ga', 'Ni']",8.0,-40.99023459,0.0007514684863236809,-4.440892098500626e-15,
6447,Ga12Os4,mp-570844,Ga3Os,"['Ga', 'Os']",16.0,-85.53854368,6.77121997068042e-05,0.0,
23596,F38Ga6Pb10,mp-556117,Ga3Pb5F19,"['Ga', 'Pb', 'F']",54.0,-262.43582425,1.1247974537553773e-05,0.0,
23630,Ga12Re4,mp-1188393,Ga3Re,"['Ga', 'Re']",16.0,-87.62799947,0.020623733266906363,0.0,
21293,Ga12Ru4,mp-672204,Ga3Ru,"['Ga', 'Ru']",16.0,-79.62893718,5.3379985351931225e-05,0.0,
21862,Cl28Ga6S16Sb14,mp-1196451,Ga3Sb7(S4Cl7)2,"['Ga', 'Sb', 'S', 'Cl']",64.0,-240.41115476,0.0004086307641602005,0.0,
1524,Ga3Tc1,mp-1183998,Ga3Tc,"['Ga', 'Tc']",4.0,-19.67418755,0.1821036163287184,0.0,
30793,Br4Ga12Te12,mp-1212718,Ga3Te3Br,"['Ga', 'Te', 'Br']",28.0,-94.02640297,0.0012967000460375466,0.0,
25725,Cl4Ga12Te12,mp-1212726,Ga3Te3Cl,"['Ga', 'Te', 'Cl']",28.0,-96.31362046,0.0017544062660435067,0.0,
27808,Ga12I4Te12,mp-28608,Ga3Te3I,"['Ga', 'Te', 'I']",28.0,-91.6674284,3.287384905181767e-06,0.0,
19432,Ag1Ga40Mo8,mp-1203027,Ga40AgMo8,"['Ga', 'Ag', 'Mo']",49.0,-217.80404428,0.0,0.0,
23150,Ga40Ge1Mo8,mp-1204805,Ga40GeMo8,"['Ga', 'Ge', 'Mo']",49.0,-219.18402492,0.0036593628997421135,-8.881784197001252e-16,
18023,Au1Ga40Mo8,mp-1195837,Ga40Mo8Au,"['Ga', 'Mo', 'Au']",49.0,-218.75711197,0.0014251167765211292,0.0,
19042,Ga40Mo8Sn1,mp-1203338,Ga40SnMo8,"['Ga', 'Sn', 'Mo']",49.0,-218.55680161,0.006145354582195672,0.0,
20132,Bi4Ga8O18,mp-23519,Ga4Bi2O9,"['Ga', 'Bi', 'O']",30.0,-178.68503,1.4087890621183874e-05,-2.6645352591003757e-15,
16795,Cu36Ga16,mp-1197621,Ga4Cu9,"['Ga', 'Cu']",52.0,-201.64192164,0.0,0.0,
27898,Ga4Ge1O8,mp-29455,Ga4GeO8,"['Ga', 'Ge', 'O']",13.0,-79.84381115,2.6645352591003757e-15,0.0,
13262,As4Br16Ga4Hg11,mp-669455,Ga4Hg11(AsBr4)4,"['Ga', 'Hg', 'As', 'Br']",35.0,-79.22278427,0.0011232762282364916,0.0,
14530,Cl16Ga4Hg11P4,mp-1203087,Ga4Hg11(PCl4)4,"['Ga', 'Hg', 'P', 'Cl']",35.0,-91.41770663,2.4202312499888023e-05,0.0,
31131,Ga20Ir12,mp-1212680,Ga5Ir3,"['Ga', 'Ir']",32.0,-182.0629452,0.0009988896240233913,0.0,
7475,Ga10Pd2,mp-30660,Ga5Pd,"['Ga', 'Pd']",12.0,-43.72394553,0.0008964611637365394,0.0,
13654,Ga40Pt8,mp-1199016,Ga5Pt,"['Ga', 'Pt']",48.0,-184.3668409,0.0,0.0,
15919,Ga36Sn6Te60,mp-531948,Ga6SnTe10,"['Ga', 'Sn', 'Te']",102.0,-354.82715469,0.002969789727328642,0.0,
21474,Ga36Pb6Te60,mp-686076,Ga6Te10Pb,"['Ga', 'Te', 'Pb']",102.0,-354.84322404,0.0030985737691482385,0.0,
17651,Ga14Ni6,mp-16852,Ga7Ni3,"['Ga', 'Ni']",20.0,-83.63219808,6.688407226285165e-06,0.0,
27671,Ga14Pd6,mp-1106289,Ga7Pd3,"['Ga', 'Pd']",20.0,-82.38461107,0.0004246741611320104,0.0,
23369,Ga14Pt6,mp-1188512,Ga7Pt3,"['Ga', 'Pt']",20.0,-89.58206274,0.000661419884765202,0.0,
24568,Cl52Ga14Sb14Te16,mp-1203106,Ga7Sb7(Te4Cl13)2,"['Ga', 'Sb', 'Te', 'Cl']",96.0,-324.84454523,0.0,8.881784197001252e-16,
9026,Ga14Te20,mp-18388,Ga7Te10,"['Ga', 'Te']",34.0,-116.44709124,0.0,0.0,
1678,B4Ga32Ir16,mp-28924,Ga8BIr4,"['Ga', 'B', 'Ir']",52.0,-287.99223896,0.0003018386598556688,0.0,
19681,Cu12Ga32Mo8,mp-567502,Ga8Cu3Mo2,"['Ga', 'Cu', 'Mo']",52.0,-242.62506251,0.0002259190910454123,0.0,
18685,Cu12Ga32W8,mp-568017,Ga8Cu3W2,"['Ga', 'Cu', 'W']",52.0,-255.41761516,0.0,0.0,
26356,Cl58Ga16Sb14Se16,mp-1203849,Ga8Sb7Se8Cl29,"['Ga', 'Sb', 'Se', 'Cl']",104.0,-360.47401228,0.0,0.0,
16749,Ga18Ir4,mp-31311,Ga9Ir2,"['Ga', 'Ir']",22.0,-96.70005967,0.0,0.0,
8370,Ga9Ni13,mp-21589,Ga9Ni13,"['Ga', 'Ni']",22.0,-110.96172058,0.000772774484197214,0.0,
17465,Ga18Rh4,mp-31312,Ga9Rh2,"['Ga', 'Rh']",22.0,-91.55590657,-8.881784197001252e-16,0.0,
22377,Ag8Ga8P16Se48,mp-654129,GaAg(PSe3)2,"['Ga', 'Ag', 'P', 'Se']",80.0,-319.07090771,0.004365802062499924,0.0,
9879,Ag6Ga3,mp-578,GaAg2,"['Ga', 'Ag']",9.0,-26.52156314,0.0,0.0,
31750,Ag2Ga2O4,mp-11020,GaAgO2,"['Ga', 'Ag', 'O']",8.0,-41.44475526,0.0,0.0,
25491,Ag2Ga2S4,mp-5342,GaAgS2,"['Ga', 'Ag', 'S']",8.0,-32.33766304,0.0,0.0,
30347,Ag2Ga2Se4,mp-5518,GaAgSe2,"['Ga', 'Ag', 'Se']",8.0,-29.34199005,0.0,0.0,
23394,Ag1Ga1Se4Sn1,mp-1224848,GaAgSnSe4,"['Ga', 'Ag', 'Sn', 'Se']",7.0,-26.70327439,0.000206520248324793,0.0,
5542,Ag2Ga2Te4,mp-4899,GaAgTe2,"['Ga', 'Ag', 'Te']",8.0,-26.61469966,0.0,0.0,
3829,As1Ga1,mp-2534,GaAs,"['Ga', 'As']",2.0,-8.3922497,0.0005528347839351966,0.0,
3181,As3Ga3O12,mp-3996,GaAsO4,"['Ga', 'As', 'O']",18.0,-109.13361481,0.005778321848416645,0.0,
17955,As1Ga1Pd5,mp-1025346,GaAsPd5,"['Ga', 'As', 'Pd']",7.0,-37.05042349,0.0,0.0,
923,Au4Ga4,mp-30379,GaAu,"['Ga', 'Au']",8.0,-27.04365391,0.0,0.0,
31407,B6Ga6H36,mp-30150,GaBH6,"['Ga', 'B', 'H']",48.0,-178.41375932,0.0,0.0,
7741,B4Ga4O16Pb4,mp-505743,GaBPbO4,"['Ga', 'B', 'Pb', 'O']",28.0,-186.24571667,0.0,0.0,
10726,Bi12Ga4O44Sb8,mp-1224998,GaBi3Sb2O11,"['Ga', 'Bi', 'Sb', 'O']",68.0,-407.46868362,0.0023032114993108976,0.0,
74,Br16Ga8,mp-28384,GaBr2,"['Ga', 'Br']",24.0,-69.08251217,0.0,0.0,
27461,Br12Ga4,mp-30953,GaBr3,"['Ga', 'Br']",16.0,-45.1483938,0.0004126319152830682,0.0,
8818,Cl16Ga8,mp-568848,GaCl2,"['Ga', 'Cl']",24.0,-78.29916925,3.8134277343448986e-05,0.0,
286,Cl6Ga2,mp-30952,GaCl3,"['Ga', 'Cl']",8.0,-26.00642461,0.00018683959777821002,0.0,
15467,Cl4Ga4O4,mp-1212662,GaClO,"['Ga', 'Cl', 'O']",12.0,-57.84974387,0.0040045951025389215,0.0,
27939,Co1Ga1,mp-1121,GaCo,"['Ga', 'Co']",2.0,-10.70041932,7.968478759767805e-05,0.0,
27074,Cu3Ga1,mp-1183995,GaCu3,"['Ga', 'Cu']",4.0,-15.70446045,0.005218501012996146,0.0,
17847,Br8Cu2Ga2,mp-1212660,GaCuBr4,"['Ga', 'Cu', 'Br']",12.0,-35.46070041,0.004490529289547851,-1.1546319456101628e-14,
20359,Cl8Cu2Ga2,mp-29362,GaCuCl4,"['Ga', 'Cu', 'Cl']",12.0,-39.90966549,0.0046123891796843175,0.0,
20120,Cu1Ga1Ge1Se4,mp-1224851,GaCuGeSe4,"['Ga', 'Cu', 'Ge', 'Se']",7.0,-28.45349088,0.0,-8.881784197001252e-16,
1904,Cu1Ga1I4,mp-29403,GaCuI4,"['Ga', 'Cu', 'I']",6.0,-15.71305907,6.264950683343429e-05,0.0,
6226,Cu2Ga2O4,mp-11019,GaCuO2,"['Ga', 'Cu', 'O']",8.0,-44.69858964,0.0001288439807130004,0.0,
25908,Cu1Ga1Pt2,mp-644280,GaCuPt2,"['Ga', 'Cu', 'Pt']",4.0,-21.17203995,0.0008056252929691254,0.0,
4551,Cu1Ga1Rh2,mp-862485,GaCuRh2,"['Ga', 'Cu', 'Rh']",4.0,-23.34806678,9.716226928713212e-05,0.0,
19391,Cu2Ga2S4,mp-5238,GaCuS2,"['Ga', 'Cu', 'S']",8.0,-35.41840432,5.106446166980305e-05,0.0,
24426,Cu2Ga2Se4,mp-4840,GaCuSe2,"['Ga', 'Cu', 'Se']",8.0,-32.06115142,1.0800435791047391e-05,0.0,
3309,Cu2Ga2Te4,mp-3839,GaCuTe2,"['Ga', 'Cu', 'Te']",8.0,-29.10355602,4.641470581079332e-05,0.0,
28252,F6Ga2,mp-588,GaF3,"['Ga', 'F']",8.0,-38.18862248,0.0024202254309084736,0.0,
9284,B4Fe8Ga4O20,mp-1097025,GaFe2BO5,"['Ga', 'Fe', 'B', 'O']",36.0,-250.2820222,0.0015788714518230051,-1.4210854715202004e-14,
3860,Co4Fe2Ga1Si1,mp-1225089,GaFe2Co4Si,"['Ga', 'Fe', 'Co', 'Si']",8.0,-56.33649405,-6.217248937900877e-15,-6.217248937900877e-15,
13168,Fe3Ga1,mp-19870,GaFe3,"['Ga', 'Fe']",4.0,-28.97943014,0.0,0.0,
9314,Co2Fe1Ga1,mp-30551,GaFeCo2,"['Ga', 'Fe', 'Co']",4.0,-26.67897993,0.0,0.0,
1278,Fe1Ga1Ir2,mp-865247,GaFeIr2,"['Ga', 'Fe', 'Ir']",4.0,-30.0869125,0.010833495076497002,0.0,
2356,Fe1Ga1Rh2,mp-865170,GaFeRh2,"['Ga', 'Fe', 'Rh']",4.0,-27.94468045,0.0,0.0,
5861,Fe1Ga1Ru2,mp-1184055,GaFeRu2,"['Ga', 'Fe', 'Ru']",4.0,-30.67962588,0.0001495869763186164,0.0,
5935,Ga1Ge1Pt6,mp-1224823,GaGePt6,"['Ga', 'Ge', 'Pt']",8.0,-47.15183711,0.0,0.0,
9703,Ga2Ge2Te2,mp-8211,GaGeTe,"['Ga', 'Ge', 'Te']",6.0,-22.98548507,0.0,0.0,
6724,Br48Ga16H48N16,mp-1204038,GaH3Br3N,"['Ga', 'H', 'Br', 'N']",128.0,-513.03870064,0.0003124507495115836,0.0,
19104,F6Ga2H6N2,mp-643759,GaH3NF3,"['Ga', 'H', 'N', 'F']",16.0,-79.40505518,0.0018687436328121976,0.0,
17049,F12Ga4H36N12,mp-1201190,GaH9(NF)3,"['Ga', 'H', 'N', 'F']",64.0,-321.4914508,0.00034159287719770504,0.0,
18086,Cl8Ga4H4,mp-1190111,GaHCl2,"['Ga', 'H', 'Cl']",16.0,-52.17127599,0.0010949599450684744,0.0,
17840,Ga4H4O8,mp-634326,GaHO2,"['Ga', 'H', 'O']",16.0,-90.15818678,0.0012452270373541907,0.0,
18541,Ga4H4O16Se4,mp-1194398,GaHSeO4,"['Ga', 'H', 'Se', 'O']",28.0,-152.87602903,0.0008102686690838468,0.0,