,Composition,MaterialId,Reduced Formula,Elements,NSites,Corrected Energy,Decomposition Energy Per Atom All,Decomposition Energy Per Atom MP,Directory
9137,Er4Mo6Si8,mp-1106326,Er2Si4Mo3,"['Er', 'Si', 'Mo']",18.0,-139.12526247,0.00011634552517492125,0.0,
7339,Er4Rh6Si10,mp-1212876,Er2Si5Rh3,"['Er', 'Si', 'Rh']",20.0,-135.86199865,7.862584960882657e-05,0.0,
17609,Er4Ru6Si10,mp-8808,Er2Si5Ru3,"['Er', 'Si', 'Ru']",20.0,-145.13063621,0.0,0.0,
19819,Er2Ge1Si1,mp-1225524,Er2SiGe,"['Er', 'Si', 'Ge']",4.0,-22.50048861,0.0,0.0,
11936,Er8O20Si4,mp-555983,Er2SiO5,"['Er', 'Si', 'O']",32.0,-266.23567754,0.0004024490063478936,7.105427357601002e-15,
7992,Er4O14Sn4,mp-3688,Er2Sn2O7,"['Er', 'Sn', 'O']",22.0,-160.64331845,0.0,0.0,
27552,Er8Te12,mp-14643,Er2Te3,"['Er', 'Te']",20.0,-102.0015866,0.0013250095996095723,0.0,
19206,Er4O26Te10,mp-559304,Er2Te5O13,"['Er', 'Te', 'O']",40.0,-248.53262313,2.1354123045824736e-05,0.0,
13486,Er2O2Te1,mp-1178355,Er2TeO2,"['Er', 'Te', 'O']",5.0,-37.06295372,0.0011050689882807774,0.0,
9773,Er8O24Te4,mp-774557,Er2TeO6,"['Er', 'Te', 'O']",36.0,-260.74232875,0.0014170222981899627,0.0,
22746,Er2S2Te1,mp-1225541,Er2TeS2,"['Er', 'Te', 'S']",5.0,-29.79381255,0.0007417075292952546,0.0,
25317,Er8Si16Ti12,mp-510085,Er2Ti3Si4,"['Er', 'Ti', 'Si']",36.0,-247.55032914,4.727066080700837e-05,0.0,
17892,Er8O20Ti4,mp-774567,Er2TiO5,"['Er', 'Ti', 'O']",32.0,-278.16137227,0.0025986036840812687,1.5987211554602254e-14,
28313,Ag1Er2Tl1,mp-863667,Er2TlAg,"['Er', 'Tl', 'Ag']",4.0,-15.69238042,0.0004333278460695311,0.0,
16155,Cd1Er2Tl1,mp-861628,Er2TlCd,"['Er', 'Tl', 'Cd']",4.0,-13.70180443,0.0,0.0,
24274,Cu6Er4S10Tl2,mp-1192137,Er2TlCu3S5,"['Er', 'Tl', 'Cu', 'S']",22.0,-113.06504835,0.0,0.0,
12647,Er2In1Tl1,mp-1184088,Er2TlIn,"['Er', 'Tl', 'In']",4.0,-15.7194881,0.014272065016681879,0.0,
27553,Er8O24W4,mp-17201,Er2WO6,"['Er', 'W', 'O']",36.0,-292.74743063,0.0,0.0,
24664,Er2Zn17,mp-30963,Er2Zn17,"['Er', 'Zn']",19.0,-34.94422599,0.0,0.0,
22828,Er2In1Zn1,mp-862788,Er2ZnIn,"['Er', 'Zn', 'In']",4.0,-14.71143616,0.017181758187254204,0.0,
31696,Er2Ru1Zn1,mp-862895,Er2ZnRu,"['Er', 'Zn', 'Ru']",4.0,-21.27766225,0.014401180397033642,0.0,
24858,Al24Er6Os8,mp-1212920,Er3(Al3Os)4,"['Er', 'Al', 'Os']",38.0,-229.3714069,2.7898447800822623e-05,-1.7763568394002505e-15,
17881,Al24Er6Ru8,mp-1212925,Er3(Al3Ru)4,"['Er', 'Al', 'Ru']",38.0,-216.59947157,0.0,-8.881784197001252e-16,
10678,Al4Er6Ni12,mp-17141,Er3(AlNi3)2,"['Er', 'Al', 'Ni']",22.0,-124.7215119,1.976437766337824e-05,0.0,
8098,Cu4Er3Si4,mp-5454,Er3(CuSi)4,"['Er', 'Cu', 'Si']",11.0,-58.82394857,0.002578638966629576,9.769962616701378e-15,
30136,Er6Ga4Ni12,mp-1190853,Er3(GaNi3)2,"['Er', 'Ga', 'Ni']",22.0,-121.49951943,0.0014551298908020982,-8.881784197001252e-16,
2777,Co2Er3In4,mp-1205952,Er3(In2Co)2,"['Er', 'In', 'Co']",9.0,-42.28022265,0.0,0.0,
17694,Er3P6Pd20,mp-570798,Er3(P3Pd10)2,"['Er', 'P', 'Pd']",29.0,-171.07813711,0.0,0.0,
8976,Er3Pd20Si6,mp-1212872,Er3(Si3Pd10)2,"['Er', 'Si', 'Pd']",29.0,-174.05616097,0.0,2.6645352591003757e-15,
29719,Er6Ni12Si4,mp-1192164,Er3(SiNi3)2,"['Er', 'Si', 'Ni']",22.0,-133.4638981,0.00018239393643426638,0.0,
12140,Al3Co1Er3Ge2,mp-1205920,Er3Al3CoGe2,"['Er', 'Al', 'Co', 'Ge']",9.0,-47.93589544,0.0,0.0,
29977,Al12Cr8Er12O48,mp-1213214,Er3Al3Cr2O12,"['Er', 'Al', 'Cr', 'O']",80.0,-641.41240023,0.0,0.0,
23611,Al3Er3Ge2Ni1,mp-12388,Er3Al3NiGe2,"['Er', 'Al', 'Ni', 'Ge']",9.0,-46.62952922,-8.881784197001252e-16,-8.881784197001252e-16,
22421,Al20Er12O48,mp-3384,Er3Al5O12,"['Er', 'Al', 'O']",80.0,-631.22762514,0.0,0.0,
25803,Al1C1Er3,mp-568021,Er3AlC,"['Er', 'Al', 'C']",5.0,-28.83430579,3.3754719724221616e-05,0.0,
22440,Al1Er3N1,mp-1017558,Er3AlN,"['Er', 'Al', 'N']",5.0,-30.4986847,3.495331054637063e-05,0.0,
22419,B14Er6W2,mp-1191731,Er3B7W,"['Er', 'B', 'W']",22.0,-160.55784275,0.0005057716619321084,0.0,
5387,C40Er30,mp-1203719,Er3C4,"['Er', 'C']",70.0,-530.51850585,0.0,0.0,
26173,Co4Er12,mp-1188770,Er3Co,"['Er', 'Co']",16.0,-86.13607677,0.0026136138928221087,0.0,
24902,B20Co58Er6Si8,mp-21951,Er3Co29(Si2B5)2,"['Er', 'Co', 'Si', 'B']",92.0,-655.74686738,0.006274305822023152,1.2434497875801753e-14,
5098,Co8Er6Ge26,mp-1196873,Er3Co4Ge13,"['Er', 'Co', 'Ge']",40.0,-220.76687582,0.0,0.0,
4969,Co2Er6Si6,mp-568196,Er3CoSi3,"['Er', 'Co', 'Si']",14.0,-85.3493226,0.0,0.0,
17387,B14Cr2Er6,mp-14503,Er3CrB7,"['Er', 'Cr', 'B']",22.0,-154.22853094,0.0,0.0,
28094,Cu6Er6Sb8,mp-1105955,Er3Cu3Sb4,"['Er', 'Cu', 'Sb']",20.0,-98.87818492,-8.881784197001252e-15,-8.881784197001252e-15,
16990,Cu2Er6S14Si2,mp-558980,Er3CuSiS7,"['Er', 'Cu', 'Si', 'S']",24.0,-140.37140545,0.0,0.0,
28690,Er6Fe4Si6,mp-1212880,Er3Fe2Si3,"['Er', 'Fe', 'Si']",16.0,-104.79562392,0.008300377634882672,0.0,
10717,B14Er6Fe2,mp-1190715,Er3FeB7,"['Er', 'Fe', 'B']",22.0,-151.90669859,0.0,0.0,
5659,Er6Fe2Si6,mp-12837,Er3FeSi3,"['Er', 'Fe', 'Si']",14.0,-87.39336948,0.0005928843457034816,0.0,
20463,Er12Ga60Ru16,mp-1213476,Er3Ga15Ru4,"['Er', 'Ga', 'Ru']",88.0,-429.73844839,0.006041905085582222,0.0,
7422,Er24Ga16,mp-1198546,Er3Ga2,"['Er', 'Ga']",40.0,-179.79216829,0.0,0.0,
27730,Er12Ga20,mp-1197972,Er3Ga5,"['Er', 'Ga']",32.0,-135.8491747,0.00028395026245142674,0.0,
15789,Er12Ga20O48,mp-12236,Er3Ga5O12,"['Er', 'Ga', 'O']",80.0,-558.58886115,0.00011620706054760177,0.0,
13532,Ag3Er3Ga8,mp-1104172,Er3Ga8Ag3,"['Er', 'Ga', 'Ag']",14.0,-52.51632117,0.0056652158597989555,0.0,
28382,Er6Ga2S12,mp-7290,Er3GaS6,"['Er', 'Ga', 'S']",20.0,-117.49598627,0.0055130911206049404,0.0,
29088,Er6Ge26Rh8,mp-1204515,Er3Ge13Rh4,"['Er', 'Ge', 'Rh']",40.0,-227.71480167,0.0,0.0,
778,Er6Ge6Ru4,mp-1105754,Er3Ge3Ru2,"['Er', 'Ge', 'Ru']",16.0,-104.77930834,0.0,0.0,
27928,Er6In10,mp-1106153,Er3In5,"['Er', 'In']",16.0,-61.58645283,0.0,0.0,
30356,Er3In1N1,mp-31058,Er3InN,"['Er', 'In', 'N']",5.0,-29.85402166,0.0007567306220694903,0.0,
18748,Er12Ir4,mp-1189478,Er3Ir,"['Er', 'Ir']",16.0,-100.02237338,0.0003821736987301705,0.0,
16775,B14Er6Mn2,mp-1191003,Er3MnB7,"['Er', 'Mn', 'B']",22.0,-153.52176249,0.0014459599272020895,0.0,
30011,Er12Ni4,mp-1105907,Er3Ni,"['Er', 'Ni']",16.0,-82.18238895,0.0003246858337400127,0.0,
25116,B4Er6Ni14,mp-17168,Er3Ni7B2,"['Er', 'Ni', 'B']",24.0,-147.83945131,5.329070518200751e-15,5.329070518200751e-15,
11543,Er12Ge8Ni4,mp-1213162,Er3NiGe2,"['Er', 'Ni', 'Ge']",24.0,-134.0369348,0.0,0.0,
15604,Er12F20O8,mp-560114,Er3O2F5,"['Er', 'O', 'F']",40.0,-293.26565914,6.586685546317028e-06,0.0,
31211,Er12Os4,mp-1188131,Er3Os,"['Er', 'Os']",16.0,-104.40199868,0.0011807580065914536,0.0,
26549,Er6F34Pb8,mp-34580,Er3Pb4F17,"['Er', 'Pb', 'F']",48.0,-278.60827315,1.1673876962881025e-05,1.0658141036401503e-14,
29569,Er6Pd4,mp-12545,Er3Pd2,"['Er', 'Pd']",10.0,-55.75509855,0.010342386516112967,0.0,
19576,Er6Pd8,mp-1104774,Er3Pd4,"['Er', 'Pd']",14.0,-82.39193591,0.0014142589048553589,0.0,
2287,Er6Pt8,mp-1104136,Er3Pt4,"['Er', 'Pt']",14.0,-93.54134931,0.0014186999400980227,0.0,
24475,B14Er6Re2,mp-1191966,Er3ReB7,"['Er', 'Re', 'B']",22.0,-160.06312789,0.0,0.0,
31160,Er12Rh4,mp-11437,Er3Rh,"['Er', 'Rh']",16.0,-93.03994483,0.0,0.0,
8611,Er42Rh28,mp-1198715,Er3Rh2,"['Er', 'Rh']",70.0,-454.5690618,0.0015618386132816298,0.0,
2425,Er12Ru4,mp-1189274,Er3Ru,"['Er', 'Ru']",16.0,-97.5804976,0.0007505505432128246,0.0,
25195,Er6I6Ru2,mp-1213004,Er3RuI3,"['Er', 'Ru', 'I']",14.0,-69.03187923,0.002762820415735945,0.0,
20037,Au6Er6Sb8,mp-1105695,Er3Sb4Au3,"['Er', 'Sb', 'Au']",20.0,-95.65032229,0.0008515795917967139,0.0,
4941,Er6O24Sb10,mp-772087,Er3Sb5O12,"['Er', 'Sb', 'O']",40.0,-277.95703744,0.00014344266210919443,0.0,
20539,Er6O14Sb2,mp-1212828,Er3SbO7,"['Er', 'Sb', 'O']",22.0,-171.16978382,0.0004326557315348367,0.0,
27887,Al12Er12O48Sc8,mp-1213255,Er3Sc2Al3O12,"['Er', 'Sc', 'Al', 'O']",80.0,-661.34391694,3.3936199217876606e-05,0.0,
7801,Er3S7Sc2,mp-1225608,Er3Sc2S7,"['Er', 'Sc', 'S']",12.0,-79.34098345,0.02163210248415748,0.0,
2701,Er6Pt46Si22,mp-1201817,Er3Si11Pt23,"['Er', 'Si', 'Pt']",74.0,-489.40375162,0.005827118572551804,0.0,
20658,Er6Ni2Si6,mp-569818,Er3Si3Ni,"['Er', 'Si', 'Ni']",14.0,-83.13834218,0.002122210160436566,0.0,
19449,Er12F4O40Se8Si4,mp-555942,Er3SiSe2O10F,"['Er', 'Si', 'Se', 'O', 'F']",68.0,-488.77725418,2.4697261030048878e-05,0.0,
15163,Er3Sn7,mp-1079090,Er3Sn7,"['Er', 'Sn']",10.0,-46.80988977,0.00014688196984824486,0.0,
4558,Er6O14Ta2,mp-756277,Er3TaO7,"['Er', 'Ta', 'O']",22.0,-196.29346612,0.001089724703481565,0.0,
21598,Cu5Er3S8Tl2,mp-1189719,Er3Tl2Cu5S8,"['Er', 'Tl', 'Cu', 'S']",18.0,-90.53201981,0.0022443838316661413,0.0,
20011,Al24Er4Pd9,mp-1212881,Er4(Al8Pd3)3,"['Er', 'Al', 'Pd']",37.0,-180.88527483,0.0,0.0,
6073,Al24Er4Pt9,mp-31475,Er4(Al8Pt3)3,"['Er', 'Al', 'Pt']",37.0,-196.23846419,0.0002284739083613374,0.0,
30151,B4Cl4Er16O28,mp-1204549,Er4BClO7,"['Er', 'B', 'Cl', 'O']",52.0,-419.10576488,0.00592219548904005,0.0,
31044,C14Er8,mp-1212833,Er4C7,"['Er', 'C']",22.0,-172.36263884,0.00015681941761425122,0.0,
23163,Cd4Er16Ir4,mp-1212909,Er4CdIr,"['Er', 'Cd', 'Ir']",24.0,-125.05696117,2.220638834593558e-06,0.0,
28126,Cd4Er16Ni4,mp-1212924,Er4CdNi,"['Er', 'Cd', 'Ni']",24.0,-107.26874589,1.3967738443199096e-05,-8.881784197001252e-16,
136,Cd4Er16Pd4,mp-1212944,Er4CdPd,"['Er', 'Cd', 'Pd']",24.0,-108.54277161,0.0,-8.881784197001252e-16,
16135,Cd4Er16Pt4,mp-1212949,Er4CdPt,"['Er', 'Cd', 'Pt']",24.0,-115.8840733,0.0,0.0,
7019,Er4Ga12Ni1,mp-1106190,Er4Ga12Ni,"['Er', 'Ga', 'Ni']",17.0,-69.83427623,0.0,0.0,
23056,Er4Ga12Pd1,mp-1181425,Er4Ga12Pd,"['Er', 'Ga', 'Pd']",17.0,-69.84612334,0.0,0.0,
14330,Er4Ga12Pt1,mp-1212821,Er4Ga12Pt,"['Er', 'Ga', 'Pt']",17.0,-71.05490104,0.0,0.0,
18360,Co3Er4Ga16,mp-862806,Er4Ga16Co3,"['Er', 'Ga', 'Co']",23.0,-99.50557257,0.0045270810682742635,0.0,
16294,Er4Ga21Ni10,mp-1184507,Er4Ga21Ni10,"['Er', 'Ga', 'Ni']",35.0,-157.37203646,0.008433601759660014,3.552713678800501e-15,
15068,Er4Ge6Rh7,mp-1106353,Er4Ge6Rh7,"['Er', 'Ge', 'Rh']",17.0,-113.78145368,0.0,0.0,
11171,Er4Ge4In1Ni2,mp-13508,Er4In(NiGe2)2,"['Er', 'In', 'Ni', 'Ge']",11.0,-59.53607126,0.0,0.0,
10852,Er16In4Ir4,mp-567685,Er4InIr,"['Er', 'In', 'Ir']",24.0,-133.87212936,1.3543847652286445e-06,0.0,
21859,Er16In4Rh4,mp-571107,Er4InRh,"['Er', 'In', 'Rh']",24.0,-127.16235745,-8.881784197001252e-16,0.0,
21078,Co4Er16Mg4,mp-1212959,Er4MgCo,"['Er', 'Mg', 'Co']",24.0,-111.71447366,0.0,0.0,
1214,Er16Mg4Ni4,mp-1212947,Er4MgNi,"['Er', 'Mg', 'Ni']",24.0,-107.63447924,0.0,0.0,
31619,Er16Mg4Rh4,mp-1212943,Er4MgRh,"['Er', 'Mg', 'Rh']",24.0,-118.71677224,0.0,0.0,
15370,C4Er4Ni13,mp-28147,Er4Ni13C4,"['Er', 'Ni', 'C']",21.0,-137.81062819,0.0005374515643605804,0.0,
28006,C5Er4Ni2,mp-1206215,Er4Ni2C5,"['Er', 'Ni', 'C']",11.0,-80.2686338,0.0,0.0,
7211,Br8Er8Os2,mp-1212840,Er4OsBr4,"['Er', 'Os', 'Br']",18.0,-95.27253478,0.0006208366037316893,0.0,
27783,Er8Ir26Si18,mp-510706,Er4Si9Ir13,"['Er', 'Si', 'Ir']",52.0,-415.65631474,0.00019700362872576704,-3.552713678800501e-15,
1376,Er8Ge12Zn10,mp-1192836,Er4Zn5Ge6,"['Er', 'Zn', 'Ge']",30.0,-120.66086203,0.0,0.0,
27770,Er4O12Zr3,mp-1225650,Er4Zr3O12,"['Er', 'Zr', 'O']",19.0,-170.41474171,0.010941875585427141,3.552713678800501e-15,
15952,Co8Er10Si28,mp-1199544,Er5(Co2Si7)2,"['Er', 'Co', 'Si']",46.0,-284.72358502,4.876221128213842e-06,0.0,
7678,Co4Er10Te4,mp-567517,Er5(CoTe)2,"['Er', 'Co', 'Te']",18.0,-100.03415621,0.009451777667099925,0.0,
4682,Er10Ge20Rh8,mp-1200777,Er5(Ge5Rh2)2,"['Er', 'Ge', 'Rh']",38.0,-227.12161598,0.0,0.0,
22342,Er10Ge4Sb4,mp-1213113,Er5(GeSb)2,"['Er', 'Ge', 'Sb']",18.0,-97.78770473,0.0,0.0,
25668,Er10In8Ni4,mp-1192568,Er5(In2Ni)2,"['Er', 'In', 'Ni']",22.0,-102.28057739,0.0009017113210223471,0.0,
17220,Er10In8Pd4,mp-1190725,Er5(In2Pd)2,"['Er', 'In', 'Pd']",22.0,-103.55496077,0.0010657507998939053,0.0,
20627,Er10In8Pt4,mp-1213169,Er5(In2Pt)2,"['Er', 'In', 'Pt']",22.0,-109.92805539,0.0005205063982600677,0.0,
21537,Er10Ni4Te4,mp-567994,Er5(NiTe)2,"['Er', 'Ni', 'Te']",18.0,-95.98836881,0.003478150827907811,0.0,
9704,Er5O12Re2,mp-1213202,Er5(ReO6)2,"['Er', 'Re', 'O']",19.0,-163.04810402,7.121111842067762e-05,0.0,
27413,Er10Ir8Si20,mp-1195957,Er5(Si5Ir2)2,"['Er', 'Si', 'Ir']",38.0,-258.89594896,0.024821515919509096,0.0,
29408,Er10Sb4Si4,mp-1213158,Er5(SiSb)2,"['Er', 'Si', 'Sb']",18.0,-100.18808563,0.0002538656890180846,0.0,
14136,Al6Er10Ge8Ni6,mp-638521,Er5Al3Ni3Ge4,"['Er', 'Al', 'Ni', 'Ge']",30.0,-163.33241259,0.0,0.0,
19273,Bi12Er20,mp-31466,Er5Bi3,"['Er', 'Bi']",32.0,-158.63869147,0.0,0.0,
3147,Au4Bi2Er10,mp-1181438,Er5BiAu2,"['Er', 'Bi', 'Au']",16.0,-77.68025968,0.0,0.0,
8128,Bi2Er10Pd4,mp-1213208,Er5BiPd2,"['Er', 'Bi', 'Pd']",16.0,-85.43046665,0.000668943048095727,0.0,
22260,Bi2Er10Pt4,mp-31462,Er5BiPt2,"['Er', 'Bi', 'Pt']",16.0,-92.65178418,0.0025108249715168895,0.0,
14753,Br36C8Er20,mp-29401,Er5C2Br9,"['Er', 'C', 'Br']",64.0,-325.54975903,0.0,0.0,
24710,Co19Er5P12,mp-1225819,Er5Co19P12,"['Er', 'Co', 'P']",36.0,-255.26939299,0.00010641352647589031,0.0,
17362,Bi8Co4Er20,mp-1213426,Er5CoBi2,"['Er', 'Co', 'Bi']",32.0,-168.08076718,0.003239556356200879,0.0,
17074,Co4Er20Sb8,mp-510595,Er5CoSb2,"['Er', 'Co', 'Sb']",32.0,-175.22305852,0.0,0.0,
23288,Cu2Er10Pb6,mp-1213285,Er5CuPb3,"['Er', 'Cu', 'Pb']",18.0,-84.62429161,0.003880649182672613,0.0,
353,C2Er10Ge6,mp-1105712,Er5Ge3C,"['Er', 'Ge', 'C']",18.0,-105.16782444,0.0,0.0,
20388,Er10Ir4,mp-1103964,Er5Ir2,"['Er', 'Ir']",14.0,-90.79863552,0.00024427420619321794,0.0,
8436,Er20Ir12,mp-1201760,Er5Ir3,"['Er', 'Ir']",32.0,-224.92659904,0.0,0.0,
12273,Bi2Er10Ni4,mp-1213249,Er5Ni2Bi,"['Er', 'Ni', 'Bi']",16.0,-84.04683226,0.0069630121585966265,0.0,
21897,Er10Ni4Sb2,mp-1213207,Er5Ni2Sb,"['Er', 'Ni', 'Sb']",16.0,-85.82007537,0.0028865018383790186,0.0,
18626,Er10Ni2Pb6,mp-570864,Er5NiPb3,"['Er', 'Ni', 'Pb']",18.0,-88.74777687,0.004045616472891034,0.0,
29932,Er5Ir19P12,mp-1225792,Er5P12Ir19,"['Er', 'P', 'Ir']",36.0,-284.55585297,0.0,0.0,
30721,Er5P12Ru19,mp-1200410,Er5P12Ru19,"['Er', 'P', 'Ru']",36.0,-295.00217441,0.000493154680988539,0.0,
10010,Er10Pb6,mp-1190343,Er5Pb3,"['Er', 'Pb']",16.0,-76.15628165,0.0018944032531740262,0.0,
30516,Er20Pb16,mp-1198040,Er5Pb4,"['Er', 'Pb']",36.0,-168.59129575,0.0012007148437502835,-4.440892098500626e-15,
6221,Er20Pt16,mp-1195885,Er5Pt4,"['Er', 'Pt']",36.0,-231.70035701,0.0,0.0,
23045,C7Er5Re2,mp-1213155,Er5Re2C7,"['Er', 'Re', 'C']",14.0,-117.95967504,0.0,0.0,
7521,Er10Ru4,mp-1103691,Er5Ru2,"['Er', 'Ru']",14.0,-88.25308194,6.70536369975494e-05,0.0,
9147,Er5S7,mp-1095508,Er5S7,"['Er', 'S']",12.0,-76.48118885,0.01200873251139356,0.0,
5474,Er10Sb6,mp-12960,Er5Sb3,"['Er', 'Sb']",16.0,-84.56414024,0.0005369503320311608,0.0,
27203,Er10Si6,mp-31167,Er5Si3,"['Er', 'Si']",16.0,-89.41119819,0.0009575380517583554,0.0,
851,Er10Sn6,mp-31385,Er5Sn3,"['Er', 'Sn']",16.0,-81.07196211,0.0005434905615233632,0.0,
26458,Er10Tl6,mp-1105965,Er5Tl3,"['Er', 'Tl']",16.0,-64.53008836,0.008310123353679089,0.0,
7496,As12Er5Ni16Zr3,mp-569804,Er5Zr3(Ni4As3)4,"['Er', 'Zr', 'Ni', 'As']",36.0,-226.48538886,0.0,0.0,
8302,Al82Cr12Er12,mp-1226597,Er6Al41Cr6,"['Er', 'Al', 'Cr']",106.0,-507.07882063,0.0002836423466980875,0.0,
1370,Al86Cr8Er12,mp-1201665,Er6Al43Cr4,"['Er', 'Al', 'Cr']",106.0,-482.21333326,0.0001596402542745068,0.0,
359,Al86Er12Mo8,mp-1198488,Er6Al43Mo4,"['Er', 'Al', 'Mo']",106.0,-496.75803594,0.004722197806167117,0.0,
26314,Al86Er12V8,mp-1213427,Er6Al43V4,"['Er', 'Al', 'V']",106.0,-482.25725553,2.8286568396040934e-05,0.0,
20294,Al86Er12W8,mp-1200512,Er6Al43W4,"['Er', 'Al', 'W']",106.0,-509.21993756,9.819924233500643e-05,0.0,
16865,Al7Cu16Er6,mp-1193693,Er6Al7Cu16,"['Er', 'Al', 'Cu']",29.0,-130.14795924,0.0008178412324877371,8.881784197001252e-16,
511,Co4Er12Sn2,mp-1213336,Er6Co2Sn,"['Er', 'Co', 'Sn']",18.0,-97.57413934,0.024408273383608403,0.0,
17714,Co30Er6P19,mp-1200950,Er6Co30P19,"['Er', 'Co', 'P']",55.0,-390.01024643,2.2330534091175025e-05,0.0,
5616,Br10Co1Er6,mp-1189721,Er6CoBr10,"['Er', 'Co', 'Br']",17.0,-77.21095885,0.002813909917852797,0.0,
17448,Co1Er6Te2,mp-1079725,Er6CoTe2,"['Er', 'Co', 'Te']",9.0,-46.68088088,5.1128215061702065e-05,0.0,
3581,Bi2Er6Fe1,mp-1206002,Er6FeBi2,"['Er', 'Fe', 'Bi']",9.0,-47.43214369,0.0003093258308020097,0.0,
26832,Er6Fe1Sb2,mp-1206054,Er6FeSb2,"['Er', 'Fe', 'Sb']",9.0,-49.13407236,0.0020637961183451736,0.0,
26679,Co4Er12Ga2,mp-1190071,Er6GaCo2,"['Er', 'Ga', 'Co']",18.0,-94.80475706,0.007767097740885909,0.0,
10237,Co4Er12In2,mp-1213258,Er6InCo2,"['Er', 'In', 'Co']",18.0,-93.89101668,0.007484186689180383,0.0,
5057,Bi2Er6Mn1,mp-23039,Er6MnBi2,"['Er', 'Mn', 'Bi']",9.0,-47.99834251,6.570205077771618e-06,0.0,
8502,Er6Mn1Sb2,mp-1205843,Er6MnSb2,"['Er', 'Mn', 'Sb']",9.0,-49.64273493,0.0008763624869789766,0.0,
16491,Er6Mn1Te2,mp-1078859,Er6MnTe2,"['Er', 'Mn', 'Te']",9.0,-48.07250549,0.0003524715972229586,0.0,
28101,Al86Er12Nb8,mp-1213435,Er6Nb4Al43,"['Er', 'Nb', 'Al']",106.0,-492.43618967,0.0,0.0,
1690,As13Er6Ni20,mp-1213480,Er6Ni20As13,"['Er', 'Ni', 'As']",39.0,-230.15097571,0.0,0.0,
20004,Er6Ni20P13,mp-1213358,Er6Ni20P13,"['Er', 'Ni', 'P']",39.0,-249.15567987,0.0,0.0,
21158,Er6I10Ni1,mp-1188388,Er6NiI10,"['Er', 'Ni', 'I']",17.0,-68.61810394,1.121986672814046e-05,0.0,
18871,Er12N40O2Si22,mp-1225896,Er6Si11N20O,"['Er', 'Si', 'N', 'O']",76.0,-627.15030244,7.105427357601002e-15,0.0,
9732,Al86Er12Ta8,mp-1213424,Er6Ta4Al43,"['Er', 'Ta', 'Al']",106.0,-503.75706716,0.0,0.0,
7058,Al86Er12Ti8,mp-1213416,Er6Ti4Al43,"['Er', 'Ti', 'Al']",106.0,-475.54680714,0.00015092486586087972,0.0,
31270,Ag2Er7Te2,mp-1213175,Er7(AgTe)2,"['Er', 'Ag', 'Te']",11.0,-50.18255552,0.01753044292968653,0.0,
25713,Er7Ni2Te2,mp-29914,Er7(NiTe)2,"['Er', 'Ni', 'Te']",11.0,-57.17156104,0.007959458344283021,0.0,
28109,Co6Er7Sn23,mp-1213283,Er7Co6Sn23,"['Er', 'Co', 'Sn']",36.0,-181.06306663,0.0,-4.440892098500626e-15,
23997,Co1Er7I12,mp-1105583,Er7CoI12,"['Er', 'Co', 'I']",20.0,-81.33750957,9.326539648135679e-05,3.552713678800501e-15,
15955,Er7Fe1I12,mp-1106187,Er7FeI12,"['Er', 'Fe', 'I']",20.0,-81.9669674,0.004749339910066652,3.552713678800501e-15,
3589,Er7I12Ir1,mp-1105808,Er7IrI12,"['Er', 'Ir', 'I']",20.0,-84.30710863,0.00161508552428824,0.0,
12184,Er14Rh6,mp-30612,Er7Rh3,"['Er', 'Rh']",20.0,-121.08793356,5.011460253889766e-05,0.0,
28753,Co2Er16Ga6,mp-862995,Er8Ga3Co,"['Er', 'Ga', 'Co']",24.0,-115.48711592,6.222474853512239e-05,0.0,
1965,Co2Er16In6,mp-1190234,Er8In3Co,"['Er', 'In', 'Co']",24.0,-112.21912641,0.00011783065429682438,0.0,
266,Er8Mn3Mo5O28,mp-1225972,Er8Mn3Mo5O28,"['Er', 'Mn', 'Mo', 'O']",44.0,-348.08477634,0.0,0.0,
12651,Er16Ni36P22,mp-1213636,Er8Ni18P11,"['Er', 'Ni', 'P']",74.0,-473.09454464,0.0,0.0,
7230,Ag1Er1,mp-2621,ErAg,"['Er', 'Ag']",2.0,-8.09303236,0.0,0.0,
8435,Ag2Er2P4Se12,mp-13384,ErAg(PSe3)2,"['Er', 'Ag', 'P', 'Se']",20.0,-89.43336287,3.987847658315502e-06,1.7763568394002505e-15,
16849,Ag2Er1,mp-30339,ErAg2,"['Er', 'Ag']",3.0,-11.23134533,0.00855472540852853,0.0,
18066,Ag1Er1Hg2,mp-864646,ErAgHg2,"['Er', 'Ag', 'Hg']",4.0,-9.28914233,0.0,0.0,
29489,Ag3Er3Pb3,mp-16745,ErAgPb,"['Er', 'Ag', 'Pb']",9.0,-36.5186793,0.020042560823568145,0.0,
9336,Ag4Er4Se8,mp-4044,ErAgSe2,"['Er', 'Ag', 'Se']",16.0,-76.75319105,0.009856162402344104,0.0,
14436,Ag2Er2Sn2,mp-569724,ErAgSn,"['Er', 'Ag', 'Sn']",6.0,-26.23237121,0.0006556711360676815,0.0,
9060,Ag2Er2Te4,mp-12902,ErAgTe2,"['Er', 'Ag', 'Te']",8.0,-34.57128545,0.0,0.0,
5328,Al8Er8,mp-1188739,ErAl,"['Er', 'Al']",16.0,-73.09627978,0.0004527171496579996,0.0,
15407,Al4Er2,mp-1208,ErAl2,"['Er', 'Al']",6.0,-27.1593118,0.005930180550129727,0.0,
6344,Al4Er2Ni2,mp-31182,ErAl2Ni,"['Er', 'Al', 'Ni']",8.0,-40.86853912,0.0006874470361326601,0.0,
26210,Al3Er1,mp-2134,ErAl3,"['Er', 'Al']",4.0,-17.48132384,0.0,0.0,
24989,Al9Er3Ni6,mp-13490,ErAl3Ni2,"['Er', 'Al', 'Ni']",18.0,-93.99233882,0.0,0.0,
22948,Al4Au1Er1Ge2,mp-12020,ErAl4Ge2Au,"['Er', 'Al', 'Ge', 'Au']",8.0,-35.39165944,0.0,0.0,
15871,Al8Er2Ni2,mp-31183,ErAl4Ni,"['Er', 'Al', 'Ni']",12.0,-57.16644469,0.000607974746907658,0.0,
31139,Al14Au6Er2,mp-16624,ErAl7Au3,"['Er', 'Al', 'Au']",22.0,-92.24750581,0.002403577794743761,0.0,
8737,Al36Er4Fe16Si24,mp-569739,ErAl9(Fe2Si3)2,"['Er', 'Al', 'Fe', 'Si']",80.0,-450.38227286,3.9500898241229265e-06,0.0,