,Composition,MaterialId,Reduced Formula,Elements,NSites,Corrected Energy,Decomposition Energy Per Atom All,Decomposition Energy Per Atom MP,Directory
4649,B20Br4Ca8O36,mp-554056,Ca2B5BrO9,"['Ca', 'B', 'Br', 'O']",68.0,-511.94212522,0.0,0.0,
11032,B20Ca8Cl4O36,mp-1214176,Ca2B5ClO9,"['Ca', 'B', 'Cl', 'O']",68.0,-514.75172913,0.0003549714338246801,0.0,
16187,B5Ca2Os3,mp-542455,Ca2B5Os3,"['Ca', 'B', 'Os']",10.0,-74.77094031,0.0012766355039062205,0.0,
23771,B24Ca8O44,mp-27657,Ca2B6O11,"['Ca', 'B', 'O']",76.0,-596.91719297,-5.861977570020827e-14,-5.861977570020827e-14,
11712,B16Ca4H4O30,mp-706291,Ca2B8H2O15,"['Ca', 'B', 'H', 'O']",54.0,-409.40939034,0.0015770904195875346,0.0,
18276,B4Ca8Cl4O12,mp-554263,Ca2BClO3,"['Ca', 'B', 'Cl', 'O']",28.0,-188.81670769,0.0,0.0,
1721,B4Ca8H4N8,mp-24266,Ca2BHN2,"['Ca', 'B', 'H', 'N']",24.0,-147.96157122,4.6064127534606314e-07,0.0,
9983,B4Ca8Cl4N8,mp-23632,Ca2BN2Cl,"['Ca', 'B', 'N', 'Cl']",24.0,-153.54823044,0.002109391456706078,0.0,
10268,B4Ca8F4N8,mp-10233,Ca2BN2F,"['Ca', 'B', 'N', 'F']",24.0,-162.29767233,0.0,0.0,
9990,Bi2Ca4,mp-569535,Ca2Bi,"['Ca', 'Bi']",6.0,-20.33577807,0.00011176657226563691,0.0,
22968,As2Bi2Ca4O12,mp-557070,Ca2BiAsO6,"['Ca', 'Bi', 'As', 'O']",20.0,-127.08205952,0.00015439094335878423,0.0,
21225,Au1Bi1Ca2,mp-867799,Ca2BiAu,"['Ca', 'Bi', 'Au']",4.0,-14.49535309,0.001237067770996081,0.0,
26451,Br1Ca2N1,mp-23009,Ca2BrN,"['Ca', 'Br', 'N']",4.0,-19.63253215,0.0,0.0,
30716,As4Ca4Cd2,mp-1095180,Ca2CdAs2,"['Ca', 'Cd', 'As']",10.0,-37.82338069,0.0005907792666013378,0.0,
30989,Ca2Cd1In1,mp-977453,Ca2CdIn,"['Ca', 'Cd', 'In']",4.0,-9.37945651,0.0033636118341062726,0.0,
19332,Ca4Cd2P4,mp-1078908,Ca2CdP2,"['Ca', 'Cd', 'P']",10.0,-40.52944775,0.0037133976074219532,0.0,
15223,Ca2Cd1Pb1,mp-865167,Ca2CdPb,"['Ca', 'Cd', 'Pb']",4.0,-10.65401369,0.00048373722900407756,0.0,
27916,Ca2Cd1Pd2,mp-1068286,Ca2CdPd2,"['Ca', 'Cd', 'Pd']",5.0,-18.60502807,0.0031051800673829177,0.0,
28636,Ca2Cd1Pt2,mp-1069824,Ca2CdPt2,"['Ca', 'Cd', 'Pt']",5.0,-21.18502624,0.0,0.0,
18728,Ca8Cd4Sb8,mp-569267,Ca2CdSb2,"['Ca', 'Cd', 'Sb']",20.0,-68.47430291,0.0038652713701168295,0.0,
9907,Ca2Cd1Sn1,mp-861940,Ca2CdSn,"['Ca', 'Cd', 'Sn']",4.0,-11.18594929,0.00011349613403321968,0.0,
14506,Ca2Co12P7,mp-10923,Ca2Co12P7,"['Ca', 'Co', 'P']",21.0,-141.99415007,0.0008056321007714473,0.0,
11784,Ca2Co3O8,mp-1408395,Ca2Co3O8,"['Ca', 'Co', 'O']",13.0,-78.59527496,0.03288128218599784,0.0,
16934,Ca8Co4Ir4O24,mp-1287594,Ca2CoIrO6,"['Ca', 'Co', 'Ir', 'O']",40.0,-260.70013217,0.03386886524464039,1.2434497875801753e-14,
31438,Ca4Co2N4,mp-1400520,Ca2CoN2,"['Ca', 'Co', 'N']",10.0,-61.99617223,0.00392177236132607,0.0,
4963,Ca8Co4O24Te4,mp-552051,Ca2CoTeO6,"['Ca', 'Co', 'Te', 'O']",40.0,-247.0523017,0.0,0.0,
8417,Ca4Co2O12W2,mp-19161,Ca2CoWO6,"['Ca', 'Co', 'W', 'O']",20.0,-139.5237041,0.008632100888184446,-1.4210854715202004e-14,
21633,Ca8Cr4N12,mp-1029550,Ca2CrN3,"['Ca', 'Cr', 'N']",24.0,-177.51051378,0.029897636994626886,0.0,
9795,Ca8Cr4O24Sb4,mp-1189906,Ca2CrSbO6,"['Ca', 'Cr', 'Sb', 'O']",40.0,-273.71419574,0.0,0.0,
9430,Ca8Cu4,mp-12614,Ca2Cu,"['Ca', 'Cu']",12.0,-33.77692626,0.0006009554858397159,0.0,
16527,Br2Ca2Cu1O2,mp-545481,Ca2Cu(BrO)2,"['Ca', 'Cu', 'Br', 'O']",7.0,-34.65964353,0.007048339010882643,0.0,
11935,Ca8Cu8O20,mp-772813,Ca2Cu2O5,"['Ca', 'Cu', 'O']",36.0,-208.57968385,0.00027304721679577426,0.0,
5225,Ca2Cu6P5,mp-28660,Ca2Cu6P5,"['Ca', 'Cu', 'P']",13.0,-61.73605405,0.0,0.0,
22978,Ca2Cl2Cu1O10Te4,mp-558663,Ca2CuTe4(ClO5)2,"['Ca', 'Cu', 'Te', 'Cl', 'O']",19.0,-102.26174644,0.00012661366365751547,0.0,
25909,Ca2Eu1Ni6Zn9,mp-1227643,Ca2Eu(Zn3Ni2)3,"['Ca', 'Eu', 'Zn', 'Ni']",18.0,-65.8166853,0.010897039212149462,-3.1086244689504383e-15,
25920,Ca8Fe8O20,mp-22113,Ca2Fe2O5,"['Ca', 'Fe', 'O']",36.0,-239.39903775,0.0,0.0,
20264,Ca2Fe1H6,mp-1205964,Ca2FeH6,"['Ca', 'Fe', 'H']",9.0,-37.63657743,0.0005541441981335993,0.0,
23663,Ca8Fe4Ir4O24,mp-1306506,Ca2FeIrO6,"['Ca', 'Fe', 'Ir', 'O']",40.0,-268.19301557,0.00561739476122991,0.0,
21130,Ca8Fe4O24Re4,mp-31763,Ca2FeReO6,"['Ca', 'Fe', 'Re', 'O']",40.0,-295.14351404,0.0,0.0,
23331,Ca8Fe4O24Sb4,mp-20431,Ca2FeSbO6,"['Ca', 'Fe', 'Sb', 'O']",40.0,-261.50551939,0.0,0.0,
3789,Ca4Fe2O12W2,mp-1275487,Ca2FeWO6,"['Ca', 'Fe', 'W', 'O']",20.0,-142.07242704,0.0016080242207028306,3.552713678800501e-15,
29423,Ca4Ga4H4O16Si2,mp-760729,Ca2Ga2Si(HO4)2,"['Ca', 'Ga', 'Si', 'H', 'O']",30.0,-192.40458684,7.440432421912391e-05,0.0,
12964,Ag1Ca2Ga7,mp-1227351,Ca2Ga7Ag,"['Ca', 'Ga', 'Ag']",10.0,-31.71020316,0.0031978045395408827,0.0,
10605,Au1Ca2Ga7,mp-1227436,Ca2Ga7Au,"['Ca', 'Ga', 'Au']",10.0,-32.91206308,0.0,0.0,
12272,Ca2Cu2Ga1,mp-30472,Ca2GaCu2,"['Ca', 'Ga', 'Cu']",5.0,-16.7252341,0.0013902527539060294,0.0,
2009,Ca4Ga2Pd4,mp-1078280,Ca2GaPd2,"['Ca', 'Ga', 'Pd']",10.0,-42.63725175,0.0002644642822309251,0.0,
6691,Ca4Ga2Pt4,mp-1078428,Ca2GaPt2,"['Ca', 'Ga', 'Pt']",10.0,-48.07425904,0.00023286370019448555,0.0,
2717,Ca2Ga1Si1,mp-1227300,Ca2GaSi,"['Ca', 'Ga', 'Si']",4.0,-14.54022397,0.0,0.0,
23207,Ca4Ge2Pd4,mp-1078326,Ca2GePd2,"['Ca', 'Ge', 'Pd']",10.0,-45.90945435,0.0,0.0,
1968,Ca2Ge1Pd3,mp-1071127,Ca2GePd3,"['Ca', 'Ge', 'Pd']",6.0,-28.92245687,0.0,0.0,
9168,Ca4Ge2Pt4,mp-1078483,Ca2GePt2,"['Ca', 'Ge', 'Pt']",10.0,-51.04390885,0.0,0.0,
5001,Ca2H6Os1,mp-1207196,Ca2H6Os,"['Ca', 'H', 'Os']",9.0,-40.9445938,0.0,0.0,
18475,Ca2H6Ru1,mp-1079896,Ca2H6Ru,"['Ca', 'H', 'Ru']",9.0,-39.05841333,6.257799804743058e-05,0.0,
1113,Ca8H4N4,mp-24119,Ca2HN,"['Ca', 'H', 'N']",16.0,-75.55935414,0.00381985385986372,0.0,
31603,Ca8Hg4,mp-1103139,Ca2Hg,"['Ca', 'Hg']",12.0,-22.07601784,0.0017699811779785524,0.0,
10277,Ca2Hg1Pb1,mp-866105,Ca2HgPb,"['Ca', 'Hg', 'Pb']",4.0,-10.41780988,0.002166888062744121,0.0,
5943,Ca4I2N2,mp-28553,Ca2IN,"['Ca', 'I', 'N']",8.0,-37.13289176,1.4793713383198792e-06,0.0,
9171,Ca4In2N2,mp-510086,Ca2InN,"['Ca', 'In', 'N']",8.0,-35.65557273,0.00439957345336861,0.0,
14806,Ca4In2Pd4,mp-20792,Ca2InPd2,"['Ca', 'In', 'Pd']",10.0,-41.50160513,0.0,0.0,
19368,Ca4In2Pt4,mp-21885,Ca2InPt2,"['Ca', 'In', 'Pt']",10.0,-46.64242704,0.00022567978906185004,0.0,
16568,Ca2Ir1O6Rh1,mp-1227404,Ca2IrRhO6,"['Ca', 'Ir', 'Rh', 'O']",10.0,-66.84155161,0.007566629685550552,0.0,
3083,Ca4La2O12Ru2,mp-1227569,Ca2LaRuO6,"['Ca', 'La', 'Ru', 'O']",20.0,-144.7841134,0.0008533937207033659,0.0,
27940,Ca4La2O12Sb2,mp-1227469,Ca2LaSbO6,"['Ca', 'La', 'Sb', 'O']",20.0,-139.2818034,0.00013347501952765128,0.0,
26260,Ca4La2O12Ta2,mp-1227477,Ca2LaTaO6,"['Ca', 'La', 'Ta', 'O']",20.0,-164.60096628,0.0009821242324221657,0.0,
28680,Ca2Mg1Pd2,mp-1068035,Ca2MgPd2,"['Ca', 'Mg', 'Pd']",5.0,-19.35130781,0.0,0.0,
20080,Ca2Mg1Pt2,mp-1068002,Ca2MgPt2,"['Ca', 'Mg', 'Pt']",5.0,-22.18844179,0.0,0.0,
2020,Ca4Mg2O12Re2,mp-1227487,Ca2MgReO6,"['Ca', 'Mg', 'Re', 'O']",20.0,-144.65299071,7.105427357601002e-15,0.0,
28623,Ca4Mg2O12W2,mp-19324,Ca2MgWO6,"['Ca', 'Mg', 'W', 'O']",20.0,-139.31272056,0.0,0.0,
20989,Ca2Mn3O8,mp-18893,Ca2Mn3O8,"['Ca', 'Mn', 'O']",13.0,-92.00159001,7.018703125005743e-05,0.0,
8672,Ca8H24Mn12O68P12,mp-1182836,Ca2Mn3P3H6O17,"['Ca', 'Mn', 'P', 'H', 'O']",124.0,-830.63062844,0.0008961809904235452,0.0,
16890,As4Ca4H8Mn2O20,mp-23716,Ca2MnAs2(H2O5)2,"['Ca', 'Mn', 'As', 'H', 'O']",38.0,-233.78450088,0.0,0.0,
14491,Ca8Mn4N12,mp-1029959,Ca2MnN3,"['Ca', 'Mn', 'N']",24.0,-172.07395521,8.031168457023341e-05,0.0,
25934,Ca8Mn4O24Re4,mp-1106155,Ca2MnReO6,"['Ca', 'Mn', 'Re', 'O']",40.0,-304.31626272,0.0,0.0,
29124,Ca4Mn2O12Ru2,mp-1227575,Ca2MnRuO6,"['Ca', 'Mn', 'Ru', 'O']",20.0,-140.57472402,0.0,0.0,
20097,Ca4Mn2O12W2,mp-19108,Ca2MnWO6,"['Ca', 'Mn', 'W', 'O']",20.0,-146.73310827,0.0,0.0,
13014,Ca8Mo4N12,mp-1029689,Ca2MoN3,"['Ca', 'Mo', 'N']",24.0,-180.36513806,0.06878074652343624,0.0,
3330,Ca2N1,mp-2686,Ca2N,"['Ca', 'N']",3.0,-14.61444694,0.0,0.0,
15364,Ca2Cl1N1,mp-22936,Ca2NCl,"['Ca', 'N', 'Cl']",4.0,-20.44452291,0.0,0.0,
23783,Ca8Nb8O28,mp-13979,Ca2Nb2O7,"['Ca', 'Nb', 'O']",44.0,-361.25323329,0.0,0.0,
19496,Ca8Cr4Nb4O24,mp-1214115,Ca2NbCrO6,"['Ca', 'Nb', 'Cr', 'O']",40.0,-313.96302374,0.0,0.0,
30740,Ca8Fe4Nb4O24,mp-1214121,Ca2NbFeO6,"['Ca', 'Nb', 'Fe', 'O']",40.0,-301.23698784,0.0,0.0,
18544,Ca8N12Nb4,mp-1029832,Ca2NbN3,"['Ca', 'Nb', 'N']",24.0,-181.88508704,0.031767516928710826,0.0,
7237,Ca4Nd2O12Ru2,mp-1227481,Ca2NdRuO6,"['Ca', 'Nd', 'Ru', 'O']",20.0,-143.82071917,0.00038113744726686605,0.0,
13568,Ca4Nd2O12Ta2,mp-1227405,Ca2NdTaO6,"['Ca', 'Nd', 'Ta', 'O']",20.0,-163.70285755,0.0022283505273392734,-3.552713678800501e-15,
19512,As7Ca2Ni12,mp-1191589,Ca2Ni12As7,"['Ca', 'Ni', 'As']",21.0,-115.86056282,0.0016847556184895751,0.0,
28712,Ca4Ge4Ni6,mp-1104825,Ca2Ni3Ge2,"['Ca', 'Ni', 'Ge']",14.0,-68.23743998,4.440892098500626e-15,4.440892098500626e-15,
27644,Ca4Ni14,mp-1105997,Ca2Ni7,"['Ca', 'Ni']",18.0,-91.61955025,-1.7763568394002505e-14,0.0,
10247,Ca4Ni14P8,mp-510001,Ca2Ni7P4,"['Ca', 'Ni', 'P']",26.0,-151.65195027,0.00015304982421948665,0.0,
26109,Ca4Ir2Ni2O12,mp-1047142,Ca2NiIrO6,"['Ca', 'Ni', 'Ir', 'O']",20.0,-125.19707644,0.017302559556950037,0.0,
19880,Ca4Ni2O12Os2,mp-22020,Ca2NiOsO6,"['Ca', 'Ni', 'Os', 'O']",20.0,-133.25193097,0.0,0.0,
3718,Ca4Ni2O12W2,mp-19114,Ca2NiWO6,"['Ca', 'Ni', 'W', 'O']",20.0,-134.83608286,0.006635989638182238,0.0,
15551,Ca4O14Os4,mp-2923,Ca2Os2O7,"['Ca', 'Os', 'O']",22.0,-161.80232274,0.0,-3.552713678800501e-15,
6214,Ca8O28P8,mp-17922,Ca2P2O7,"['Ca', 'P', 'O']",44.0,-320.06490937,0.0,0.0,
7250,Ca4O34P12,mp-758337,Ca2P6O17,"['Ca', 'P', 'O']",50.0,-360.67702981,0.0005439106359368395,0.0,
24485,Ca8Cl4O16P4,mp-554081,Ca2PClO4,"['Ca', 'P', 'Cl', 'O']",32.0,-215.14130644,5.1123212890580305e-05,0.0,
19397,Ca2I1P1,mp-23040,Ca2PI,"['Ca', 'P', 'I']",4.0,-16.58721334,5.216788329320821e-06,0.0,
13499,Ca8N12P4,mp-8977,Ca2PN3,"['Ca', 'P', 'N']",24.0,-164.48399472,0.0,-3.552713678800501e-15,
23459,Ca8Pb4,mp-30478,Ca2Pb,"['Ca', 'Pb']",12.0,-37.50665524,0.00026333133870437564,0.0,
19910,Au4Ca4Pb2,mp-20723,Ca2PbAu2,"['Ca', 'Pb', 'Au']",10.0,-35.5534505,0.0006215179931645665,0.0,
10626,Ca4O8Pb2,mp-21137,Ca2PbO4,"['Ca', 'Pb', 'O']",14.0,-85.25086884,9.558944894028087e-05,0.0,
11924,Au1Ca2Pd1,mp-863744,Ca2PdAu,"['Ca', 'Pd', 'Au']",4.0,-15.44150129,0.0036033813167319906,0.0,
13115,Ca2Co3I36Pr19,mp-1228704,Ca2Pr19(CoI12)3,"['Ca', 'Pr', 'Co', 'I']",60.0,-247.86419988,0.00048029903776036775,0.0,
30897,Ca4Mo12O42Pr8,mp-1227629,Ca2Pr4(Mo2O7)3,"['Ca', 'Pr', 'Mo', 'O']",66.0,-501.02816726,0.013370827364363791,0.0,
30840,Ca2O8Pt3,mp-8710,Ca2Pt3O8,"['Ca', 'Pt', 'O']",13.0,-79.73098361,0.0,-2.6645352591003757e-15,
7928,Au1Ca2Pt1,mp-1227265,Ca2PtAu,"['Ca', 'Pt', 'Au']",4.0,-16.80650767,0.0007589849047855424,0.0,
222,Ca4O14Ru4,mp-554638,Ca2Ru2O7,"['Ca', 'Ru', 'O']",22.0,-152.37774637,0.0,0.0,
3665,Ca4Sb2,mp-9925,Ca2Sb,"['Ca', 'Sb']",6.0,-21.56884854,0.00013317892089803607,0.0,
7922,Ca4O14Sb4,mp-16280,Ca2Sb2O7,"['Ca', 'Sb', 'O']",22.0,-141.26971386,-9.769962616701378e-14,-2.6645352591003757e-15,
15621,Ca8S20Sb8,mp-29284,Ca2Sb2S5,"['Ca', 'Sb', 'S']",36.0,-171.16741698,0.0,0.0,
5170,Ca4Pd6Sb8,mp-571215,Ca2Sb4Pd3,"['Ca', 'Sb', 'Pd']",18.0,-85.39223183,0.001309203075085641,0.0,
14223,Au1Ca2Sb1,mp-861950,Ca2SbAu,"['Ca', 'Sb', 'Au']",4.0,-15.07464147,0.011069054003403522,0.0,
13587,Ca4Nb2O12Sc2,mp-1214125,Ca2ScNbO6,"['Ca', 'Sc', 'Nb', 'O']",20.0,-162.1839991,2.7199541015932027e-05,0.0,
2763,Ca4O12Os2Sc2,mp-1105395,Ca2ScOsO6,"['Ca', 'Sc', 'Os', 'O']",20.0,-152.57680243,1.4413412110059198e-05,-7.105427357601002e-15,
13658,Ca2P3Pt7Sc1,mp-1227341,Ca2ScP3Pt7,"['Ca', 'Sc', 'P', 'Pt']",13.0,-82.60709429,0.0025188371048789904,0.0,
21670,Ca4O12Sb2Sc2,mp-1189528,Ca2ScSbO6,"['Ca', 'Sc', 'Sb', 'O']",20.0,-142.62690906,5.195910937505488e-05,0.0,
15135,Ca4O12Sc2Ta2,mp-1214081,Ca2ScTaO6,"['Ca', 'Sc', 'Ta', 'O']",20.0,-168.12111646,2.649511523422632e-05,0.0,
30627,Ca4O16Se6,mp-28535,Ca2Se3O8,"['Ca', 'Se', 'O']",26.0,-151.06301368,0.0002310083638823457,0.0,
15016,Ca8Si4,mp-2517,Ca2Si,"['Ca', 'Si']",12.0,-43.24343497,0.0,0.0,
20789,Ag2Ca4Si6,mp-29570,Ca2Si3Ag,"['Ca', 'Si', 'Ag']",12.0,-51.73571139,0.0,0.0,
3769,Ca6O33Pb9Si9,mp-1214269,Ca2Si3Pb3O11,"['Ca', 'Si', 'Pb', 'O']",57.0,-396.05616529,0.00042416637609576924,0.0,
14962,Ca4N16Si10,mp-28922,Ca2Si5N8,"['Ca', 'Si', 'N']",30.0,-232.10948624,7.105427357601002e-15,7.105427357601002e-15,
3448,Ca4Pt6Si10,mp-1214093,Ca2Si5Pt3,"['Ca', 'Si', 'Pt']",20.0,-115.18907067,1.5751425781473927e-06,0.0,
1756,Ca4Ir4Si2,mp-30312,Ca2SiIr2,"['Ca', 'Si', 'Ir']",10.0,-61.62104338,3.555457812431939e-05,0.0,
8465,Ca8O16Si4,mp-4481,Ca2SiO4,"['Ca', 'Si', 'O']",28.0,-203.26712677,0.0,0.0,
3690,Ca8S16Si4,mp-1194033,Ca2SiS4,"['Ca', 'Si', 'S']",28.0,-147.20177218,0.00014546553013339292,0.0,
11137,Ca8Sn4,mp-22735,Ca2Sn,"['Ca', 'Sn']",12.0,-39.85054897,0.00021320686604830996,0.0,
17380,Ca2O8Sn3,mp-1386610,Ca2Sn3O8,"['Ca', 'Sn', 'O']",13.0,-83.33651142,0.0005481797190514115,0.0,
29463,Ca8Pt12Sn20,mp-21774,Ca2Sn5Pt3,"['Ca', 'Sn', 'Pt']",40.0,-198.08530587,4.478244921912733e-05,0.0,
440,Ca2Hg1Sn1,mp-866229,Ca2SnHg,"['Ca', 'Sn', 'Hg']",4.0,-10.96855108,0.00019588058898944993,0.0,
12050,Ca8N8Sn4,mp-1029915,Ca2SnN2,"['Ca', 'Sn', 'N']",20.0,-111.9959521,6.852354003861194e-05,0.0,
2487,Ca4O8Sn2,mp-4747,Ca2SnO4,"['Ca', 'Sn', 'O']",14.0,-90.53390616,0.0,0.0,
19485,Ca8S16Sn4,mp-866503,Ca2SnS4,"['Ca', 'Sn', 'S']",28.0,-137.22633277,0.0004982689913504146,0.0,
11109,Ca28O98Ta28,mp-680380,Ca2Ta2O7,"['Ca', 'Ta', 'O']",154.0,-1342.44574349,0.00037532842454801596,-1.5987211554602254e-14,
2081,Ca8Cr4O24Ta4,mp-1214103,Ca2TaCrO6,"['Ca', 'Ta', 'Cr', 'O']",40.0,-325.72452738,0.0,0.0,
10987,Ca4Mo2O12Ta2,mp-1366540,Ca2TaMoO6,"['Ca', 'Ta', 'Mo', 'O']",20.0,-159.85030854,0.001059609621094637,0.0,
4326,Ca8N12Ta4,mp-1029773,Ca2TaN3,"['Ca', 'Ta', 'N']",24.0,-191.30767627,0.02964476011230488,0.0,
25989,Ca4O12Ta2V2,mp-1373426,Ca2TaVO6,"['Ca', 'Ta', 'V', 'O']",20.0,-162.74789294,0.008498309542968485,0.0,
16418,Ca2O8Ti3,mp-1397126,Ca2Ti3O8,"['Ca', 'Ti', 'O']",13.0,-108.01221036,8.794443810167252e-05,0.0,
25699,Ca2Cd1Tl1,mp-867849,Ca2TlCd,"['Ca', 'Tl', 'Cd']",4.0,-8.9347715,0.009306917098999001,0.0,
3382,Ca2Hg1Tl1,mp-1183453,Ca2TlHg,"['Ca', 'Tl', 'Hg']",4.0,-8.68606745,0.0012716978904725451,0.0,
18371,Ca2In1Tl1,mp-1227698,Ca2TlIn,"['Ca', 'Tl', 'In']",4.0,-10.97912813,0.005125699509887838,0.0,
2623,Ca2Pb1Tl1,mp-861604,Ca2TlPb,"['Ca', 'Tl', 'Pb']",4.0,-12.07603238,0.00010878350952170379,-8.881784197001252e-16,
21337,Ca4O12Ru2Tm2,mp-1214117,Ca2TmRuO6,"['Ca', 'Tm', 'Ru', 'O']",20.0,-144.55528706,0.0012030969511709344,0.0,
28950,Ca4O14V4,mp-27614,Ca2V2O7,"['Ca', 'V', 'O']",22.0,-161.18915919,0.012967345722655566,0.0,
28217,Ag4Ca8Ni8O48V12,mp-705890,Ca2V3Ni2AgO12,"['Ca', 'V', 'Ni', 'Ag', 'O']",80.0,-530.24854244,0.002259363993168506,0.0,
23852,Ca2O8V3,mp-1284741,Ca2V3O8,"['Ca', 'V', 'O']",13.0,-97.4640072,0.0,0.0,
133,Bi2Ca4O12V2,mp-554381,Ca2VBiO6,"['Ca', 'V', 'Bi', 'O']",20.0,-136.64405887,2.8819195311946544e-05,-6.217248937900877e-15,
14998,Ca8Cl4O16V4,mp-557276,Ca2VClO4,"['Ca', 'V', 'Cl', 'O']",32.0,-214.99494405,1.7842645264387613e-05,0.0,
727,Ca8N12V4,mp-17892,Ca2VN3,"['Ca', 'V', 'N']",24.0,-180.87584266,0.0,0.0,
942,Ca4N4W2,mp-1446433,Ca2WN2,"['Ca', 'W', 'N']",10.0,-74.30374025,0.1754617042600577,0.0,
16194,Ca4Cu2P6Zn4,mp-571306,Ca2Zn2CuP3,"['Ca', 'Zn', 'Cu', 'P']",16.0,-65.95658978,3.552713678800501e-15,0.0,
24069,Ca2Ga1Zn3,mp-1227661,Ca2Zn3Ga,"['Ca', 'Zn', 'Ga']",6.0,-13.04355741,0.0007250698807776956,0.0,
8176,Ca8O48Pb4Si12Zn12,mp-1200437,Ca2Zn3Si3PbO12,"['Ca', 'Zn', 'Si', 'Pb', 'O']",84.0,-549.23774832,4.719145647236189e-05,0.0,
19139,Ca2Ga3Zn1,mp-1227660,Ca2ZnGa3,"['Ca', 'Zn', 'Ga']",6.0,-17.25459007,0.0,0.0,
842,Ca2N2Zn1,mp-8818,Ca2ZnN2,"['Ca', 'Zn', 'N']",5.0,-25.47029329,0.0,0.0,
21152,Ca16O128Ti16Zr40,mp-667369,Ca2Zr5Ti2O16,"['Ca', 'Zr', 'Ti', 'O']",200.0,-1788.38883055,0.0,0.0,
18175,Al4As8Ca6,mp-1205338,Ca3(AlAs2)2,"['Ca', 'Al', 'As']",18.0,-81.42826787,5.725171549464392e-05,0.0,
18527,Al16Ca24N32,mp-29820,Ca3(AlN2)2,"['Ca', 'Al', 'N']",72.0,-456.31425337,2.3092638912203256e-14,2.3092638912203256e-14,
4603,Al4Ca6P8,mp-1205337,Ca3(AlP2)2,"['Ca', 'Al', 'P']",18.0,-88.47561684,3.897329861057841e-05,0.0,
21281,As14Ca21O56,mp-530449,Ca3(AsO4)2,"['Ca', 'As', 'O']",91.0,-591.9704871,0.00010750997596176148,0.0,
16105,B6Ca3Rh8,mp-569257,Ca3(B3Rh4)2,"['Ca', 'B', 'Rh']",17.0,-115.54974851,0.0,-2.398081733190338e-14,
4406,B12Ca18N24,mp-1227905,Ca3(BN2)2,"['Ca', 'B', 'N']",54.0,-379.87054287,4.8093010705407835e-05,0.0,
12557,B4Ca6O12,mp-3575,Ca3(BO3)2,"['Ca', 'B', 'O']",22.0,-162.22265427,0.0,0.0,
10461,Bi16Ca6Pd8,mp-31278,Ca3(Bi2Pd)4,"['Ca', 'Bi', 'Pd']",30.0,-131.42617621,0.0014964375312507272,0.0,
30558,Ca6Cd16Pt8,mp-1192828,Ca3(Cd2Pt)4,"['Ca', 'Cd', 'Pt']",30.0,-90.25619075,0.010680596927892694,0.0,
9459,Ca6Cu16Sn8,mp-570710,Ca3(Cu2Sn)4,"['Ca', 'Cu', 'Sn']",30.0,-118.24271769,0.00498458190993567,-7.105427357601002e-15,
6248,Ca6Ga4N8,mp-571162,Ca3(GaN2)2,"['Ca', 'Ga', 'N']",18.0,-104.08329163,4.444693359317853e-05,0.0,
14003,Ca3Ga4Ni4,mp-11285,Ca3(GaNi)4,"['Ca', 'Ga', 'Ni']",11.0,-46.60840702,0.0006622835156244733,0.0,
28273,Ca6Ga4P8,mp-1189986,Ca3(GaP2)2,"['Ca', 'Ga', 'P']",18.0,-83.19605439,0.0011239374430322968,0.0,
26311,Ca12Ga8Pd8,mp-31480,Ca3(GaPd)2,"['Ca', 'Ga', 'Pd']",28.0,-109.71924352,0.0,0.0,
10221,Ca12Ga8Pt8,mp-31479,Ca3(GaPt)2,"['Ca', 'Ga', 'Pt']",28.0,-120.87699858,0.0,0.0,
11492,As16Ca12Ge8,mp-18504,Ca3(GeAs2)2,"['Ca', 'Ge', 'As']",36.0,-163.56533609,0.0,0.0,
29741,Ca3Ge4Ir4,mp-1095240,Ca3(GeIr)4,"['Ca', 'Ge', 'Ir']",11.0,-67.25917816,0.0,0.0,
28283,As8Ca6In4,mp-650513,Ca3(InAs2)2,"['Ca', 'In', 'As']",18.0,-74.71962434,0.024319711688368884,0.0,
26130,Ca6In8Ni16,mp-21677,Ca3(InNi2)4,"['Ca', 'In', 'Ni']",30.0,-134.25267145,8.388460937513997e-05,0.0,
27371,Ca72O192P48,mp-1197377,Ca3(PO4)2,"['Ca', 'P', 'O']",312.0,-2260.05551014,0.0,0.0,
28081,Ca6P28Si16,mp-1195188,Ca3(Si4P7)2,"['Ca', 'Si', 'P']",50.0,-270.52267002,2.0842764062223296e-05,0.0,
23210,As16Ca12Si8,mp-540696,Ca3(SiAs2)2,"['Ca', 'Si', 'As']",36.0,-171.58740601,0.0,0.0,
4980,Ca3Ir4Si4,mp-11176,Ca3(SiIr)4,"['Ca', 'Si', 'Ir']",11.0,-72.72167756,0.0013381117773318962,0.0,
28878,Ca12P16Si8,mp-1194866,Ca3(SiP2)2,"['Ca', 'Si', 'P']",36.0,-185.92665957,0.0,0.0,
16095,Ca62Sn40,mp-680302,Ca31Sn20,"['Ca', 'Sn']",102.0,-351.65525441,6.768766847464747e-06,-3.1086244689504383e-15,
16892,Al6Ca6N10,mp-1029921,Ca3Al3N5,"['Ca', 'Al', 'N']",22.0,-143.94032117,0.0,0.0,
22520,Ag2Al7Ca3,mp-11430,Ca3Al7Ag2,"['Ca', 'Al', 'Ag']",12.0,-41.73319718,0.004624925755208675,0.0,
10879,Al7Ca3Cu2,mp-10876,Ca3Al7Cu2,"['Ca', 'Al', 'Cu']",12.0,-44.401856,0.003343325954860976,0.0,
6419,Al4As12Ca12,mp-17186,Ca3AlAs3,"['Ca', 'Al', 'As']",28.0,-124.74378003,0.0013022460686382686,0.0,
8003,Al4Ca12N12,mp-29596,Ca3AlN3,"['Ca', 'Al', 'N']",28.0,-167.37336639,0.0,0.0,
20026,Al4Ca12Sb12,mp-18300,Ca3AlSb3,"['Ca', 'Al', 'Sb']",28.0,-111.97615896,0.0016234274713999852,0.0,
13209,As1Br3Ca3,mp-27294,Ca3AsBr3,"['Ca', 'As', 'Br']",7.0,-28.09504607,8.474218757825724e-07,0.0,
24267,As1Ca3Cl3,mp-28069,Ca3AsCl3,"['Ca', 'As', 'Cl']",7.0,-30.22444849,3.774935826150738e-06,0.0,
30134,As4Ca12I12,mp-1214087,Ca3AsI3,"['Ca', 'As', 'I']",28.0,-103.69815553,0.0003026968743022884,0.0,
1051,As4Ca12N4,mp-4192,Ca3AsN,"['Ca', 'As', 'N']",20.0,-97.9232117,0.0,0.0,
3934,Au8Ca6,mp-12699,Ca3Au4,"['Ca', 'Au']",14.0,-49.26611172,0.0,0.0,
24951,B8Ca6H24O6,mp-1182037,Ca3B4(H4O)3,"['Ca', 'B', 'H', 'O']",44.0,-220.19730588,0.0,-2.6645352591003757e-15,
3127,B4Br8C4Ca12N4,mp-1214049,Ca3BCBr2N,"['Ca', 'B', 'C', 'Br', 'N']",32.0,-172.66122251,0.0010196426318360707,0.0,
15244,B4C4Ca12Cl8N4,mp-649453,Ca3BCNCl2,"['Ca', 'B', 'C', 'N', 'Cl']",32.0,-179.1518812,0.001933335150146931,0.0,
17907,B4Ca12I12N8,mp-1195197,Ca3BI3N2,"['Ca', 'B', 'I', 'N']",36.0,-187.35331014,0.000283461958550113,0.0,
23190,B1Ca3N3,mp-30315,Ca3BN3,"['Ca', 'B', 'N']",7.0,-45.29227977,0.0,0.0,
6584,Be8Ca12H8O48Si12,mp-699464,Ca3Be2Si3(HO6)2,"['Ca', 'Be', 'Si', 'H', 'O']",88.0,-622.8304216,4.5696644175308165e-06,0.0,
31013,Bi1Ca3N1,mp-31149,Ca3BiN,"['Ca', 'Bi', 'N']",5.0,-23.31260987,0.0,0.0,