,Composition,MaterialId,Reduced Formula,Elements,NSites,Corrected Energy,Decomposition Energy Per Atom All,Decomposition Energy Per Atom MP,Directory
29976,Ce6Ni18,mp-580354,CeNi3,"['Ce', 'Ni']",24.0,-149.01609805,-2.6645352591003757e-15,0.0,
17485,B2Ce2Ni8,mp-1095459,CeNi4B,"['Ce', 'Ni', 'B']",12.0,-76.90062394,0.0027818164420567726,0.0,
30103,Ce1Ni5,mp-1910,CeNi5,"['Ce', 'Ni']",6.0,-36.90246372,0.0,0.0,
11574,Ce4Ni20Sn4,mp-574423,CeNi5Sn,"['Ce', 'Ni', 'Sn']",28.0,-166.26849004,2.1316282072803006e-14,-5.329070518200751e-15,
28188,As1Ce1Ni1,mp-1061766,CeNiAs,"['Ce', 'Ni', 'As']",3.0,-19.43595929,0.027299102633469907,0.0,
12478,B16Ce4Ni4,mp-1191074,CeNiB4,"['Ce', 'Ni', 'B']",24.0,-167.76355872,0.0,0.0,
24584,Ce4Ge4Ni4,mp-20616,CeNiGe,"['Ce', 'Ni', 'Ge']",12.0,-74.21415617,0.0,0.0,
24129,Ce2Ge4Ni2,mp-3541,CeNiGe2,"['Ce', 'Ni', 'Ge']",8.0,-47.72738812,0.0,0.0,
17823,Ce2Ge6Ni2,mp-1205748,CeNiGe3,"['Ce', 'Ni', 'Ge']",10.0,-56.87227568,0.0,0.0,
23527,Ce4Ni4P4,mp-1103629,CeNiP,"['Ce', 'Ni', 'P']",12.0,-82.55087171,0.00044323172688809365,0.0,
15522,Ce1Ni1Sb1,mp-1226516,CeNiSb,"['Ce', 'Ni', 'Sb']",3.0,-18.14161347,0.04535145872920321,0.0,
18836,Ce2Ni2Sb4,mp-22539,CeNiSb2,"['Ce', 'Ni', 'Sb']",8.0,-45.70556193,0.023301974020998983,0.0,
2045,Ce8Ni8Sb24,mp-568237,CeNiSb3,"['Ce', 'Ni', 'Sb']",40.0,-216.54191524,0.012217389996092898,0.0,
30180,Ce4Ni4Sn4,mp-21119,CeNiSn,"['Ce', 'Ni', 'Sn']",12.0,-69.98890008,0.011655466201234255,0.0,
20496,Ce4H4Ni4Sn4,mp-643790,CeNiSnH,"['Ce', 'Ni', 'Sn', 'H']",16.0,-85.43285453,0.0,0.0,
11902,Ce2H4Ni2Sn2,mp-542856,CeNiSnH2,"['Ce', 'Ni', 'Sn', 'H']",10.0,-50.31324356,3.6415315207705135e-14,0.0,
18152,Ce1O1,mp-10688,CeO,"['Ce', 'O']",2.0,-16.66237386,0.0,0.0,
9569,Ce1O2,mp-20194,CeO2,"['Ce', 'O']",3.0,-26.24040047,0.0,0.0,
21342,Ce2F2O2,mp-755007,CeOF,"['Ce', 'O', 'F']",6.0,-47.795978,0.029394296752929705,0.0,
22171,Ce4Os8,mp-1102302,CeOs2,"['Ce', 'Os']",12.0,-116.52396448,0.0,0.0,
9883,Ce2Os2Ru2,mp-1226566,CeOsRu,"['Ce', 'Os', 'Ru']",6.0,-54.49437901,0.0016123509741223785,-8.881784197001252e-15,
15679,Ce1P1,mp-2154,CeP,"['Ce', 'P']",2.0,-14.34762225,0.0,0.0,
30751,Ce4P8,mp-568080,CeP2,"['Ce', 'P']",12.0,-79.5771646,0.0,0.0,
8654,Ce4O28P8,mp-22524,CeP2O7,"['Ce', 'P', 'O']",40.0,-310.74401082,0.0,0.0,
11340,Ce2O28P10,mp-504897,CeP5O14,"['Ce', 'P', 'O']",40.0,-297.79391377,0.0006193432500003482,0.0,
12135,Ce2Ir2P2,mp-12920,CePIr,"['Ce', 'P', 'Ir']",6.0,-47.65359304,0.0,0.0,
25242,Ce3O12P3,mp-8382,CePO4,"['Ce', 'P', 'O']",18.0,-146.46344195,0.13945099246961057,7.105427357601002e-15,
4976,Ce2P2Pd2,mp-7003,CePPd,"['Ce', 'P', 'Pd']",6.0,-40.28541162,0.003978039529625832,0.0,
9005,Ce2O2P2Ru2,mp-21372,CePRuO,"['Ce', 'P', 'Ru', 'O']",8.0,-67.59410745,0.0,0.0,
20592,Ce8P8S8,mp-1006371,CePS,"['Ce', 'P', 'S']",24.0,-161.34219507,0.0,0.0,
4353,Ce8P8S32,mp-561261,CePS4,"['Ce', 'P', 'S']",48.0,-272.36143399,0.21427205595377252,0.0,
20330,Ce1O4Pa1,mp-1226494,CePaO4,"['Ce', 'Pa', 'O']",6.0,-57.17851413,0.0,0.0,
31771,Ce1Pb3,mp-20225,CePb3,"['Ce', 'Pb']",4.0,-18.49404399,0.0008376429418941456,0.0,
31447,Au2Ce1Pb1,mp-1183814,CePbAu2,"['Ce', 'Pb', 'Au']",4.0,-18.43304664,0.0,0.0,
24562,Ce2Pd2,mp-1018086,CePd,"['Ce', 'Pd']",4.0,-24.95651401,0.07060679565673844,0.0,
23264,Ce1Pd3,mp-2092,CePd3,"['Ce', 'Pd']",4.0,-24.80154915,0.0,0.0,
2321,Ce1Pd7,mp-1025415,CePd7,"['Ce', 'Pd']",8.0,-46.00276248,0.3708137666906737,0.0,
8847,Ce1Pm1Tl2,mp-983551,CePmTl2,"['Ce', 'Pm', 'Tl']",4.0,-16.64438271,0.03250974547363317,0.0,
46,Ce1Pm1Zn2,mp-983559,CePmZn2,"['Ce', 'Pm', 'Zn']",4.0,-14.20005531,0.02434956761779805,0.0,
525,Ce2Pt2,mp-21245,CePt,"['Ce', 'Pt']",4.0,-28.34696925,0.0,0.0,
30097,Au3Ce1Pt2,mp-1226653,CePt2Au3,"['Ce', 'Pt', 'Au']",6.0,-31.39864607,0.011656217627479926,0.0,
11430,Ce1Pt3,mp-11318,CePt3,"['Ce', 'Pt']",4.0,-28.0076101,0.0,0.0,
26737,Ce1Pt5,mp-542777,CePt5,"['Ce', 'Pt']",6.0,-40.46969538,1.3462260742613807e-05,0.0,
23544,Ce2Pt2Rh2,mp-1226551,CePtRh,"['Ce', 'Pt', 'Rh']",6.0,-44.05943241,0.01423914187513553,0.0,
4322,C2Ce2Re4Si2,mp-1206583,CeRe2SiC,"['Ce', 'Re', 'Si', 'C']",10.0,-95.35489131,0.0,0.0,
23605,B16Ce4Re4,mp-22361,CeReB4,"['Ce', 'Re', 'B']",24.0,-194.26710417,0.0,0.0,
791,Ce2Rh2,mp-1018117,CeRh,"['Ce', 'Rh']",4.0,-29.68651014,0.0,0.0,
7313,Ce2Rh4,mp-951,CeRh2,"['Ce', 'Rh']",6.0,-45.60228842,0.0,0.0,
4401,Ce1Rh3,mp-1518,CeRh3,"['Ce', 'Rh']",4.0,-30.56406148,3.163088500990341e-05,0.0,
21542,Ce3Pb3Rh3,mp-1079682,CeRhPb,"['Ce', 'Rh', 'Pb']",9.0,-56.81832313,2.6645352591003757e-15,0.0,
16724,Ce2Ru4,mp-607,CeRu2,"['Ce', 'Ru']",6.0,-50.66413619,0.0,0.0,
13340,C1Ce1Ru3,mp-1206127,CeRu3C,"['Ce', 'Ru', 'C']",5.0,-44.19338227,0.0,0.0,
7180,Ce1S1,mp-1096,CeS,"['Ce', 'S']",2.0,-14.16108828,0.0,0.0,
14169,Ce4S8,mp-13567,CeS2,"['Ce', 'S']",12.0,-77.48958983,0.0480016096765139,0.0,
5051,Ce2F2S2,mp-4973,CeSF,"['Ce', 'S', 'F']",6.0,-41.45083308,0.0,0.0,
13163,Ce1Sb1,mp-387,CeSb,"['Ce', 'Sb']",2.0,-12.17884957,0.0,0.0,
14449,Ce4Sb8,mp-1102986,CeSb2,"['Ce', 'Sb']",12.0,-66.07057236,0.005647880319010312,0.0,
25331,Au2Ce2Sb4,mp-1079698,CeSb2Au,"['Ce', 'Sb', 'Au']",8.0,-40.57544296,0.0,0.0,
22373,Ce2Pd2Sb4,mp-1079881,CeSb2Pd,"['Ce', 'Sb', 'Pd']",8.0,-45.45016194,0.0,0.0,
18169,Ce1Sb3,mp-1183738,CeSb3,"['Ce', 'Sb']",4.0,-20.53620424,0.0,0.0,
21287,Au4Ce4Sb4,mp-1095307,CeSbAu,"['Ce', 'Sb', 'Au']",12.0,-63.30980202,0.0,0.0,
24644,Ce4Ir4Sb4,mp-1101808,CeSbIr,"['Ce', 'Sb', 'Ir']",12.0,-86.32997056,0.0,0.0,
14173,Ce2Pd2Sb2,mp-1024986,CeSbPd,"['Ce', 'Sb', 'Pd']",6.0,-36.46880006,0.020085820951491584,0.0,
15514,Ce4Rh4Sb4,mp-22249,CeSbRh,"['Ce', 'Sb', 'Rh']",12.0,-81.49890743,0.0,0.0,
19918,Ce4Sb4Se4,mp-1103153,CeSbSe,"['Ce', 'Sb', 'Se']",12.0,-70.57353739,0.0011934122835279837,0.0,
30143,Ce2Sb2Te2,mp-30152,CeSbTe,"['Ce', 'Sb', 'Te']",6.0,-33.25790151,-5.329070518200751e-15,0.0,
13441,Ce1Pd6Sc1,mp-1226501,CeScPd6,"['Ce', 'Sc', 'Pd']",8.0,-50.20982259,0.003205987065941329,0.0,
22868,Ce4S12Sc4,mp-20953,CeScS3,"['Ce', 'Sc', 'S']",20.0,-138.19548093,0.007784016244140268,0.0,
19092,Ce1Se1,mp-2563,CeSe,"['Ce', 'Se']",2.0,-13.05861715,0.0,0.0,
7284,Ce2Se4,mp-1018665,CeSe2,"['Ce', 'Se']",6.0,-35.46721627,0.02453955721354273,0.0,
7253,Ce4Si4,mp-21115,CeSi,"['Ce', 'Si']",8.0,-50.68418163,0.023182290451660315,0.0,
13878,Ce2Si4,mp-1898,CeSi2,"['Ce', 'Si']",6.0,-37.51902069,0.0,0.0,
25416,Ag2Ce2Si4,mp-1080480,CeSi2Ag,"['Ce', 'Si', 'Ag']",8.0,-43.25761288,0.0,0.0,
26042,Ce2Ir2Si4,mp-1079402,CeSi2Ir,"['Ce', 'Si', 'Ir']",8.0,-58.85399649,0.002883916473999548,0.0,
28432,Ce2Ir6Si4,mp-13475,CeSi2Ir3,"['Ce', 'Si', 'Ir']",12.0,-97.88538308,0.11624380362081332,0.0,
16606,C1Ce1Mo2Si2,mp-1018666,CeSi2Mo2C,"['Ce', 'Si', 'Mo', 'C']",6.0,-50.75961749,0.0,0.0,
16180,Ce2Ni2Si4,mp-15653,CeSi2Ni,"['Ce', 'Si', 'Ni']",8.0,-51.78438775,-1.1546319456101628e-14,0.0,
17178,Ce2Ni18Si4,mp-1191823,CeSi2Ni9,"['Ce', 'Si', 'Ni']",24.0,-149.11660486,0.0005596058496086798,0.0,
21043,Ce2Pt2Si4,mp-3284,CeSi2Pt,"['Ce', 'Si', 'Pt']",8.0,-53.69743659,6.217248937900877e-15,0.0,
13895,Ce2Rh6Si4,mp-1213768,CeSi2Rh3,"['Ce', 'Si', 'Rh']",12.0,-89.93426574,0.0007247422070308929,0.0,
10284,Ce2Ru2Si4,mp-1025521,CeSi2Ru,"['Ce', 'Si', 'Ru']",8.0,-58.69844984,0.0,0.0,
28104,Ce1Rh1Ru1Si2,mp-1226491,CeSi2RuRh,"['Ce', 'Si', 'Ru', 'Rh']",5.0,-38.37585291,0.0,0.0,
22886,Ce1Ir1Si3,mp-1068906,CeSi3Ir,"['Ce', 'Si', 'Ir']",5.0,-35.25107054,0.0,0.0,
30836,Ce4N20Si12,mp-29466,CeSi3N5,"['Ce', 'Si', 'N']",36.0,-299.15059405,0.012719283049776209,7.105427357601002e-15,
16829,Ce1Os1Si3,mp-1068364,CeSi3Os,"['Ce', 'Si', 'Os']",5.0,-36.71536194,0.0,0.0,
1324,Ce1Pt1Si3,mp-1207122,CeSi3Pt,"['Ce', 'Si', 'Pt']",5.0,-32.27337624,-1.7763568394002505e-15,0.0,
4851,Ce1Rh1Si3,mp-1070394,CeSi3Rh,"['Ce', 'Si', 'Rh']",5.0,-33.68102766,0.0,0.0,
15033,Ce1Ru1Si3,mp-13120,CeSi3Ru,"['Ce', 'Si', 'Ru']",5.0,-35.09989992,0.0,0.0,
31358,Ce1Ge1Pd2Si1,mp-1226545,CeSiGePd2,"['Ce', 'Si', 'Ge', 'Pd']",5.0,-30.59675007,0.0,0.0,
20410,Ce1Ge1Rh2Si1,mp-1226517,CeSiGeRh2,"['Ce', 'Si', 'Ge', 'Rh']",5.0,-35.52719308,0.0,0.0,
14116,Ce2H2Ru2Si2,mp-604496,CeSiHRu,"['Ce', 'Si', 'H', 'Ru']",8.0,-54.01300684,0.0031882243999037385,0.0,
1654,Ce2I2Si2,mp-29535,CeSiI,"['Ce', 'Si', 'I']",6.0,-32.02794737,0.021266975808918787,0.0,
11495,Ce4Ir4Si4,mp-21441,CeSiIr,"['Ce', 'Si', 'Ir']",12.0,-91.77573354,0.05683940470703153,0.0,
23351,Ce4Ir8Si4,mp-1105540,CeSiIr2,"['Ce', 'Si', 'Ir']",16.0,-132.23628993,0.0017857581591798066,0.0,
5783,Ce2Ni2Si2,mp-20710,CeSiNi,"['Ce', 'Si', 'Ni']",6.0,-38.74489922,0.08896664642153684,0.0,
25877,Ce1Ni4Si1,mp-1072537,CeSiNi4,"['Ce', 'Si', 'Ni']",6.0,-38.00461722,0.06198574114833644,0.0,
15152,Ce2Os2Si2,mp-505005,CeSiOs,"['Ce', 'Si', 'Os']",6.0,-48.99983495,0.047827857250975825,0.0,
16072,C2Ce2Os4Si2,mp-1205921,CeSiOs2C,"['Ce', 'Si', 'Os', 'C']",10.0,-91.08040307,0.0,-1.5987211554602254e-14,
15538,Ce8Pd8Si8,mp-1213807,CeSiPd,"['Ce', 'Si', 'Pd']",24.0,-153.49977626,0.0348479658919274,0.0,
14689,Ce2Pt2Si2,mp-1072580,CeSiPt,"['Ce', 'Si', 'Pt']",6.0,-41.502171,0.0,0.0,
27279,Ce1Pt3Si1,mp-1207119,CeSiPt3,"['Ce', 'Si', 'Pt']",5.0,-34.84666915,0.0,0.0,
21071,Ce2Rh4Si2,mp-31078,CeSiRh2,"['Ce', 'Si', 'Rh']",8.0,-60.14755769,0.0,0.0,
23909,Ce2Ru2Si2,mp-8653,CeSiRu,"['Ce', 'Si', 'Ru']",6.0,-45.85718401,0.04930264465494805,0.0,
13728,C2Ce2Ru4Si2,mp-1205654,CeSiRu2C,"['Ce', 'Si', 'Ru', 'C']",10.0,-84.06063899,0.0,0.0,
25397,Ce1S4Sm3,mp-1226571,CeSm3S4,"['Ce', 'Sm', 'S']",8.0,-52.9078218,0.0,0.0,
10774,B12Ce1Sm1,mp-1226503,CeSmB12,"['Ce', 'Sm', 'B']",14.0,-97.61264199,0.0,0.0,
9788,Ce4Rh4Sn8,mp-510359,CeSn2Rh,"['Ce', 'Sn', 'Rh']",16.0,-102.78540381,0.0,0.0,
27273,Ce1Sn3,mp-1911,CeSn3,"['Ce', 'Sn']",4.0,-20.10422646,0.0,0.0,
5591,Ce4Pd8Sn12,mp-1191226,CeSn3Pd2,"['Ce', 'Sn', 'Pd']",24.0,-128.69955609,0.005444579871997313,0.0,
27317,Ce8Ru8Sn24,mp-1198476,CeSn3Ru,"['Ce', 'Sn', 'Ru']",40.0,-239.47843405,0.0,0.0,
6042,Au2Ce2Sn2,mp-11081,CeSnAu,"['Ce', 'Sn', 'Au']",6.0,-30.87499702,0.0,0.0,
14025,Au2Ce1Sn1,mp-867310,CeSnAu2,"['Ce', 'Sn', 'Au']",4.0,-19.12164892,0.0,0.0,
8041,Ce3Ir3Sn3,mp-20835,CeSnIr,"['Ce', 'Sn', 'Ir']",9.0,-64.02254094,0.0,0.0,
5660,Ce4Pd4Sn4,mp-21490,CeSnPd,"['Ce', 'Sn', 'Pd']",12.0,-70.54503177,0.0,0.0,
3223,Ce4Pt4Sn4,mp-20834,CeSnPt,"['Ce', 'Sn', 'Pt']",12.0,-75.88049858,0.2178463255789609,0.0,
28122,Ce4Ru4Sn4,mp-610687,CeSnRu,"['Ce', 'Sn', 'Ru']",12.0,-84.41584405,0.01049072817382779,0.0,
29131,Ce2O38Ta14,mp-1213884,CeTa7O19,"['Ce', 'Ta', 'O']",54.0,-524.03462858,0.005833312248263667,-1.4566126083082054e-13,
9221,Ce4O16Ta4,mp-22074,CeTaO4,"['Ce', 'Ta', 'O']",24.0,-227.29813663,0.01040179304525779,0.0,
19283,Ce1Te1,mp-1525,CeTe,"['Ce', 'Te']",2.0,-11.80198709,0.0,0.0,
30435,Ce1Th3,mp-1183732,CeTh3,"['Ce', 'Th']",4.0,-28.21424649,0.0,0.0,
27571,B12Ce1Th1,mp-1226486,CeThB12,"['Ce', 'Th', 'B']",14.0,-100.5673874,0.0,0.0,
12031,B16Ce2Th2,mp-1226547,CeThB8,"['Ce', 'Th', 'B']",20.0,-146.55723624,0.0,0.0,
1309,Ce1N2Th1,mp-1226556,CeThN2,"['Ce', 'Th', 'N']",4.0,-36.21291245,0.0,0.0,
26057,Ce4Nb4O24Ti4,mp-1227002,CeTiNbO6,"['Ce', 'Ti', 'Nb', 'O']",36.0,-323.48111336,0.003999789275692223,0.0,
11183,Ce1Tl1,mp-1206755,CeTl,"['Ce', 'Tl']",2.0,-8.80854029,0.0,0.0,
3567,Ce4O48P16Tl4,mp-1214015,CeTl(PO3)4,"['Ce', 'Tl', 'P', 'O']",72.0,-524.55551861,0.00017728031900343666,0.0,
10608,Ce4P8Se24Tl4,mp-1195195,CeTl(PSe3)2,"['Ce', 'Tl', 'P', 'Se']",40.0,-185.7149747,0.0025232734912110644,0.0,
11037,Ce1Tl3,mp-20603,CeTl3,"['Ce', 'Tl']",4.0,-13.97952422,0.015051224586791978,0.0,
24077,Au2Ce1Tl1,mp-867361,CeTlAu2,"['Ce', 'Tl', 'Au']",4.0,-16.92393372,0.0,0.0,
14191,Ce8F40Tl8,mp-1213886,CeTlF5,"['Ce', 'Tl', 'F']",56.0,-321.65441103,0.0,0.0,
19202,Ce3Pd3Tl3,mp-30512,CeTlPd,"['Ce', 'Tl', 'Pd']",9.0,-45.65190672,0.0,0.0,
4761,Ce1In2Tm1,mp-1184197,CeTmIn2,"['Ce', 'Tm', 'In']",4.0,-17.46157823,0.001743828272704917,0.0,
24268,Ce8S24Tm8,mp-541836,CeTmS3,"['Ce', 'Tm', 'S']",40.0,-265.38998907,0.004581102107422019,0.0,
6371,Ce1N5U4,mp-1226573,CeU4N5,"['Ce', 'U', 'N']",10.0,-106.41321475,0.0,0.0,
12110,Ce1N2U1,mp-1226527,CeUN2,"['Ce', 'U', 'N']",4.0,-39.61889154,0.0,0.0,
21619,Ce4O12V4,mp-18769,CeVO3,"['Ce', 'V', 'O']",20.0,-168.93090575,0.033588277258299826,0.0,
1154,Ce2Ga4Pd8Y2,mp-1226593,CeY(GaPd2)2,"['Ce', 'Y', 'Ga', 'Pd']",16.0,-92.03647606,0.0,0.0,
22487,Ce1Co17Y1,mp-1226612,CeYCo17,"['Ce', 'Y', 'Co']",19.0,-134.96069841,0.0,0.0,
24213,Ce1In2Y1,mp-984048,CeYIn2,"['Ce', 'Y', 'In']",4.0,-19.59581328,0.0036584124829097675,0.0,
28050,Ce1In6Y1,mp-1226769,CeYIn6,"['Ce', 'Y', 'In']",8.0,-32.25608583,0.0,0.0,
10951,Ce1Pd6Y1,mp-1226462,CeYPd6,"['Ce', 'Y', 'Pd']",8.0,-50.42664542,0.0,0.0,
27393,Ce2Zn22,mp-640370,CeZn11,"['Ce', 'Zn']",24.0,-44.3361581,0.007118252282714899,0.0,
25952,Ce2Zn4,mp-1385,CeZn2,"['Ce', 'Zn']",6.0,-18.68019958,0.0,0.0,
29211,Ce4Zn12,mp-1188098,CeZn3,"['Ce', 'Zn']",16.0,-43.55210625,0.0050378919028322144,0.0,
17960,Ce1Cu2Zn3,mp-7247,CeZn3Cu2,"['Ce', 'Zn', 'Cu']",6.0,-19.46955778,0.002831297124023635,0.0,
30549,Ce1Pd2Zn3,mp-13118,CeZn3Pd2,"['Ce', 'Zn', 'Pd']",6.0,-23.50734268,0.0011804329516600376,0.0,
912,Ce1Ni1Zn4,mp-1226482,CeZn4Ni,"['Ce', 'Zn', 'Ni']",6.0,-18.60290437,0.019511207555869436,-2.6645352591003757e-15,
8020,Au4Ce4Zn4,mp-13549,CeZnAu,"['Ce', 'Zn', 'Au']",12.0,-48.87546582,0.0,0.0,
10610,Ce1Cu1P2Zn1,mp-1226509,CeZnCuP2,"['Ce', 'Zn', 'Cu', 'P']",5.0,-25.7970847,0.00605246740816856,0.0,
21743,Ce2Ga2Zn2,mp-1018671,CeZnGa,"['Ce', 'Zn', 'Ga']",6.0,-23.20389626,0.02976247076578753,0.0,
27973,Ce2In2Zn2,mp-1006399,CeZnIn,"['Ce', 'Zn', 'In']",6.0,-21.94428277,0.00036966803304006035,0.0,
17923,Ce3Ni3Zn3,mp-1079342,CeZnNi,"['Ce', 'Zn', 'Ni']",9.0,-42.56562037,0.0,0.0,
21831,Ce2O2P2Zn2,mp-13207,CeZnPO,"['Ce', 'Zn', 'P', 'O']",8.0,-49.67019615,0.0013347837707513577,0.0,
19730,Ce3Pd3Zn3,mp-13382,CeZnPd,"['Ce', 'Zn', 'Pd']",9.0,-42.87606165,0.0,0.0,
6,Ce4Pt4Zn4,mp-12504,CeZnPt,"['Ce', 'Zn', 'Pt']",12.0,-63.46357165,0.0,0.0,
27078,Ce8Rh8Zn8,mp-607738,CeZnRh,"['Ce', 'Zn', 'Rh']",24.0,-132.79080827,0.0,0.0,
29700,Ce1Si1Zn1,mp-1226464,CeZnSi,"['Ce', 'Zn', 'Si']",3.0,-14.24767274,0.008715058956705768,0.0,
9745,Ce4Sn4Zn4,mp-20886,CeZnSn,"['Ce', 'Zn', 'Sn']",12.0,-51.52818812,0.0,0.0,
13333,Ce2F22Zr4,mp-1213767,CeZr2F11,"['Ce', 'Zr', 'F']",28.0,-193.45088308,0.00013952117324400604,-2.5757174171303632e-14,
11098,Ce2O72P18Zr12,mp-555444,CeZr6(PO4)9,"['Ce', 'Zr', 'P', 'O']",104.0,-855.30382661,0.0161059035208595,6.217248937900877e-14,
4120,Ce2F14Zr2,mp-22724,CeZrF7,"['Ce', 'Zr', 'F']",18.0,-124.47735453,0.0028544493966951023,-6.217248937900877e-15,
5754,Cl4,mp-1008394,Cl2,['Cl'],4.0,-7.39414664,0.0002518398321533777,0.0,
3478,Cl4O14,mp-31050,Cl2O7,"['Cl', 'O']",18.0,-72.4941741,0.0006456868340389832,0.0,
29442,Cl8F24,mp-619575,ClF3,"['Cl', 'F']",32.0,-80.34842673,0.009600323592529492,0.0,
7991,Cl2F10,mp-1213763,ClF5,"['Cl', 'F']",12.0,-29.7857154,0.01390557040608753,0.0,
31708,Cl8O16,mp-23207,ClO2,"['Cl', 'O']",24.0,-91.43259571,0.0009592027978513329,0.0,
1259,Cl4O12,mp-22869,ClO3,"['Cl', 'O']",16.0,-63.9531592,0.00015542475585927917,0.0,
11789,Cl4F12O4,mp-753945,ClOF3,"['Cl', 'O', 'F']",20.0,-60.20535933,0.0035572501748046825,0.0,
10871,Co2,mp-54,Co,['Co'],2.0,-14.21663559,0.0,0.0,
24366,As4Co2O12,mp-19292,Co(AsO3)2,"['Co', 'As', 'O']",18.0,-109.97338333,0.0,0.0,
5437,B2Co1Mo2,mp-1069105,Co(BMo)2,"['Co', 'B', 'Mo']",5.0,-44.60328009,0.0007177307792982646,0.0,
9100,B6Co2Mo6,mp-1104546,Co(BMo)3,"['Co', 'B', 'Mo']",14.0,-126.32674285,0.0,0.0,
28232,B2Co1W2,mp-7573,Co(BW)2,"['Co', 'B', 'W']",5.0,-48.67874074,0.0003869533183618046,3.552713678800501e-15,
25639,B6Co2W6,mp-27768,Co(BW)3,"['Co', 'B', 'W']",14.0,-138.24794234,0.0,0.0,
22552,Bi6Co3O18,mp-765403,Co(BiO3)2,"['Co', 'Bi', 'O']",27.0,-152.59270493,6.239697916665676e-05,0.0,
16923,Cl8Co4O32,mp-28137,Co(ClO4)2,"['Co', 'Cl', 'O']",44.0,-197.77285097,4.9532137502694695e-08,0.0,
10209,Co4I8O24,mp-572672,Co(IO3)2,"['Co', 'I', 'O']",36.0,-171.33366784,0.0,0.0,
25685,Co4N8O24,mp-30006,Co(NO3)2,"['Co', 'N', 'O']",36.0,-224.11075608,0.0,0.0,
26728,Co4N16O48,mp-773130,Co(NO3)4,"['Co', 'N', 'O']",68.0,-411.59290227,0.011890758925757083,-2.398081733190338e-14,
25427,Co2Ni4O8,mp-754168,Co(NiO2)2,"['Co', 'Ni', 'O']",14.0,-74.28897872,0.0,0.0,
24736,Co2Ni4S8,mp-674355,Co(NiS2)2,"['Co', 'Ni', 'S']",14.0,-76.41302515,0.00037669565428721796,-9.769962616701378e-15,
22655,Co4O36P12,mp-584429,Co(PO3)3,"['Co', 'P', 'O']",52.0,-360.86745618,0.0123373670688105,0.0,
1612,Co2Pd4Se4,mp-12464,Co(PdSe)2,"['Co', 'Pd', 'Se']",10.0,-51.70178741,2.0511319336335987e-05,0.0,
31584,Co4O24Pt12,mp-19238,Co(PtO2)3,"['Co', 'Pt', 'O']",40.0,-237.94245664,0.0,0.0,
14600,Co2O16Re4,mp-31516,Co(ReO4)2,"['Co', 'Re', 'O']",22.0,-173.73755848,0.0,0.0,
29648,Co2O8Rh4,mp-546936,Co(RhO2)2,"['Co', 'Rh', 'O']",14.0,-90.8367983,0.0,-3.552713678800501e-15,
8510,Co4O16Sb8,mp-1193389,Co(SbO2)2,"['Co', 'Sb', 'O']",28.0,-168.73830702,0.0,0.0,
22758,Co4O24Sb8,mp-21908,Co(SbO3)2,"['Co', 'Sb', 'O']",36.0,-222.48591758,0.0,0.0,
13291,Co8Ge12S12,mp-2956,Co2(GeS)3,"['Co', 'Ge', 'S']",32.0,-175.44624903,0.0,0.0,
17592,Co8Ge12Se12,mp-5094,Co2(GeSe)3,"['Co', 'Ge', 'Se']",32.0,-165.58682896,0.0,0.0,
1786,Co8Ge12Te12,mp-2994,Co2(GeTe)3,"['Co', 'Ge', 'Te']",32.0,-157.1510318,0.0,0.0,
30728,Co8Se12Sn12,mp-570152,Co2(SnSe)3,"['Co', 'Sn', 'Se']",32.0,-158.81595392,1.799578613326247e-05,0.0,
12831,Co8Sn12Te12,mp-866481,Co2(SnTe)3,"['Co', 'Sn', 'Te']",32.0,-151.3392822,7.891547241190011e-05,0.0,
17345,B6Co21Mo2,mp-542728,Co21(B3Mo)2,"['Co', 'B', 'Mo']",29.0,-217.20022615,0.0,0.0,
17700,B6Co21W2,mp-672221,Co21(B3W)2,"['Co', 'B', 'W']",29.0,-221.66740337,0.0,0.0,
25218,B6Co21Ge2,mp-1193515,Co21(GeB3)2,"['Co', 'Ge', 'B']",29.0,-204.55853115,0.0,0.0,
10782,B6Co21Re2,mp-541852,Co21(ReB3)2,"['Co', 'Re', 'B']",29.0,-219.79311217,0.0018687285466061354,0.0,
23472,Co21Cu3O32,mp-757299,Co21Cu3O32,"['Co', 'Cu', 'O']",56.0,-336.325298,0.008653806646377937,6.217248937900877e-15,
999,Co23O32,mp-705564,Co23O32,"['Co', 'O']",55.0,-332.75550736,0.05556401524076637,0.0,
24194,As8Co8O20,mp-705094,Co2As2O5,"['Co', 'As', 'O']",36.0,-220.02541924,0.0,0.0,
22787,As4Co8H4O20,mp-1202958,Co2AsHO5,"['Co', 'As', 'H', 'O']",36.0,-215.68954976,0.000666844231770547,0.0,
10386,Co4Cu2S8,mp-3925,Co2CuS4,"['Co', 'Cu', 'S']",14.0,-75.59837827,0.0,0.0,
30184,Co4Ge2O8,mp-548805,Co2GeO4,"['Co', 'Ge', 'O']",14.0,-88.49604845,0.0,0.0,
8984,Co8Hg4O16,mp-770995,Co2HgO4,"['Co', 'Hg', 'O']",28.0,-143.11678453,0.035387230912173884,0.0,
30135,Co8Mo16N4,mp-644838,Co2Mo4N,"['Co', 'Mo', 'N']",28.0,-267.98201894,0.0,0.0,
30795,Co4N2,mp-22631,Co2N,"['Co', 'N']",6.0,-44.70172801,0.0,0.0,
17796,Co4Ni2S8,mp-22658,Co2NiS4,"['Co', 'Ni', 'S']",14.0,-79.60635491,0.0008142314564842934,1.0658141036401503e-14,
13579,Co8P4,mp-22204,Co2P,"['Co', 'P']",12.0,-84.79976651,0.052762351990559786,0.0,
20416,Co8O28P8,mp-20274,Co2P2O7,"['Co', 'P', 'O']",44.0,-305.52985398,0.002293437768110529,-1.7763568394002505e-15,
15933,Co4O20P6,mp-540204,Co2P3O10,"['Co', 'P', 'O']",30.0,-207.24770916,0.018154968511067793,0.0,
29947,Cl4Co8O16P4,mp-622183,Co2PClO4,"['Co', 'P', 'Cl', 'O']",32.0,-201.42765309,0.0,0.0,
26319,Co8H4O20P4,mp-505217,Co2PHO5,"['Co', 'P', 'H', 'O']",36.0,-233.55150788,6.779809027079864e-06,0.0,
27562,Co4P24Re10,mp-1199584,Co2Re5P12,"['Co', 'Re', 'P']",38.0,-299.14326495,0.0,0.0,
8854,Co8Si4,mp-19905,Co2Si,"['Co', 'Si']",12.0,-84.05464639,0.0,0.0,
26946,Co4O28P8Si2,mp-17775,Co2Si(P2O7)2,"['Co', 'Si', 'P', 'O']",42.0,-301.10018976,-2.7533531010703882e-14,0.0,
2052,Co8O16Si4,mp-21856,Co2SiO4,"['Co', 'Si', 'O']",28.0,-193.45816523,0.0,0.0,
10128,Co4O8Sn2,mp-36028,Co2SnO4,"['Co', 'Sn', 'O']",14.0,-87.02033303,3.730397460888213e-05,0.0,
17587,Co4O16Te6,mp-18855,Co2Te3O8,"['Co', 'Te', 'O']",26.0,-147.35373422,0.0022231411027640036,0.0,
23731,As8Co12O32,mp-562111,Co3(AsO4)2,"['Co', 'As', 'O']",52.0,-320.36831608,-6.217248937900877e-15,0.0,
14291,Co6O16P4,mp-19264,Co3(PO4)2,"['Co', 'P', 'O']",26.0,-178.86588365,0.0,0.0,
8327,Co3S2Sn2,mp-19807,Co3(SnS)2,"['Co', 'Sn', 'S']",7.0,-40.07209297,0.000120651502511393,0.0,
27491,Co6H2,mp-1025425,Co3H,"['Co', 'H']",8.0,-49.40674082,0.00019015430541990952,0.0,