,Composition,MaterialId,Reduced Formula,Elements,NSites,Corrected Energy,Decomposition Energy Per Atom All,Decomposition Energy Per Atom MP,Directory
22883,B8Se16,mp-1214789,BSe2,"['B', 'Se']",24.0,-112.57969193,0.00037697962158222964,0.0,
26595,B2F30O6Te6,mp-561226,BTe3(OF5)3,"['B', 'Te', 'O', 'F']",44.0,-204.45097229,6.494696378034348e-06,0.0,
14789,B4W4,mp-7832,BW,"['B', 'W']",8.0,-81.49148885,0.0037837729003911136,0.0,
3764,B2W4,mp-1113,BW2,"['B', 'W']",6.0,-66.76248572,0.0,0.0,
27083,Ba1,mp-122,Ba,['Ba'],1.0,-1.91897494,0.007571514429626447,0.0,
6726,Ag24Ba4O16,mp-27286,Ba(Ag3O2)2,"['Ba', 'Ag', 'O']",44.0,-180.61427817,0.004036280493609823,0.0,
12057,Ag2Ba1Ge2,mp-13910,Ba(AgGe)2,"['Ba', 'Ag', 'Ge']",5.0,-18.51179606,0.0,0.0,
70,Ag4Ba2O4,mp-1096838,Ba(AgO)2,"['Ba', 'Ag', 'O']",10.0,-46.24156491,0.0063306794101558594,-8.881784197001252e-15,
15948,Ag2Ba1Sn2,mp-7882,Ba(AgSn)2,"['Ba', 'Ag', 'Sn']",5.0,-17.61343142,2.7567928710947598e-05,0.0,
26620,Ag8Ba4Te8,mp-18501,Ba(AgTe)2,"['Ba', 'Ag', 'Te']",20.0,-71.24436607,0.0019425882236330239,0.0,
9789,Al4Ba2Cl16,mp-30023,Ba(AlCl4)2,"['Ba', 'Al', 'Cl']",22.0,-89.07541379,4.093368430257982e-05,-1.7763568394002505e-15,
913,Al2Ba1Ga2,mp-1207061,Ba(AlGa)2,"['Ba', 'Al', 'Ga']",5.0,-17.34201522,0.00032635663476554555,0.0,
12257,Al24Ba12S48,mp-14246,Ba(AlS2)2,"['Ba', 'Al', 'S']",84.0,-434.77291307,0.025166681388578915,-2.6645352591003757e-15,
18780,Al4Ba2Se8,mp-1228740,Ba(AlSe2)2,"['Ba', 'Al', 'Se']",14.0,-65.11876364,9.23920647313281e-05,-1.7763568394002505e-15,
13984,Al8Ba4Si8,mp-5506,Ba(AlSi)2,"['Ba', 'Al', 'Si']",20.0,-86.99880008,0.0,0.0,
3106,Al4Ba2Te8,mp-28505,Ba(AlTe2)2,"['Ba', 'Al', 'Te']",14.0,-56.55756595,-1.7763568394002505e-15,-1.7763568394002505e-15,
11325,As12Ba2Pt8,mp-14501,Ba(As3Pt2)2,"['Ba', 'As', 'Pt']",22.0,-122.91456311,8.26764924966028e-07,9.769962616701378e-15,
29866,As4Ba2O12,mp-1105233,Ba(AsO3)2,"['Ba', 'As', 'O']",18.0,-113.05172348,0.015236295924478505,0.0,
30010,As4Ba2Pd4,mp-571350,Ba(AsPd)2,"['Ba', 'As', 'Pd']",10.0,-51.02664261,-8.881784197001252e-16,0.0,
24633,As2Ba1Rh2,mp-568113,Ba(AsRh)2,"['Ba', 'As', 'Rh']",5.0,-30.04895816,0.0009509369697280334,2.6645352591003757e-15,
27864,As2Ba1Ru2,mp-4109,Ba(AsRu)2,"['Ba', 'As', 'Ru']",5.0,-33.26685683,0.0,0.0,
11796,Au4Ba2F16,mp-28719,Ba(AuF4)2,"['Ba', 'Au', 'F']",22.0,-88.78178154,7.390316672495345e-05,-1.7763568394002505e-15,
31341,Au8Ba4F48,mp-558168,Ba(AuF6)2,"['Ba', 'Au', 'F']",60.0,-210.80191645,0.02208411344725869,0.0,
16833,Au4Ba2O8,mp-9297,Ba(AuO2)2,"['Ba', 'Au', 'O']",14.0,-71.26008086,0.0,0.0,
19030,B4Ba1Pt6,mp-1228679,Ba(B2Pt3)2,"['Ba', 'B', 'Pt']",11.0,-69.73713734,0.00457358168677402,0.0,
5124,B24Ba2H24,mp-1203559,Ba(BH)12,"['Ba', 'B', 'H']",50.0,-263.83763882,0.0,0.0,
28798,B8Ba4H32,mp-2647015,Ba(BH4)2,"['Ba', 'B', 'H']",44.0,-186.57886077,1.9856445199195605e-07,0.0,
29534,B2Ba1Ir2,mp-12073,Ba(BIr)2,"['Ba', 'B', 'Ir']",5.0,-35.45464977,0.0015909505410149904,0.0,
22960,B12Ba6O24,mp-540659,Ba(BO2)2,"['Ba', 'B', 'O']",42.0,-324.00047184,1.7987021950105486e-05,0.0,
24478,B2Ba1Rh2,mp-7349,Ba(BRh)2,"['Ba', 'B', 'Rh']",5.0,-32.34262984,0.004507937029297082,0.0,
7162,B4Ba2S8,mp-30126,Ba(BS2)2,"['Ba', 'B', 'S']",14.0,-77.45899021,0.0,0.0,
10445,B4Ba2Se12,mp-570823,Ba(BSe3)2,"['Ba', 'B', 'Se']",18.0,-82.86931807,0.002481782057513371,0.0,
31470,Ba2Be4N4,mp-12927,Ba(BeN)2,"['Ba', 'Be', 'N']",10.0,-61.78434988,0.0,0.0,
14041,Ba2Bi4Pd4,mp-571599,Ba(BiPd)2,"['Ba', 'Bi', 'Pd']",10.0,-46.54234429,0.0,8.881784197001252e-16,
14150,Ba9Bi18S36,mp-1228976,Ba(BiS2)2,"['Ba', 'Bi', 'S']",63.0,-292.34505097,0.0017468532090134659,-1.7763568394002505e-15,
27059,Ba2Br4F16,mp-1190125,Ba(BrF4)2,"['Ba', 'Br', 'F']",22.0,-79.91782266,6.031532581696197e-05,-1.7763568394002505e-15,
16809,Ba2Br4O12,mp-554626,Ba(BrO3)2,"['Ba', 'Br', 'O']",18.0,-82.53826462,0.00034544700086769353,0.0,
7979,Ba2Cd8Pt4,mp-1104609,Ba(Cd2Pt)2,"['Ba', 'Cd', 'Pt']",14.0,-41.90266589,0.00010505483677425431,0.0,
23186,As2Ba1Cd2,mp-8281,Ba(CdAs)2,"['Ba', 'Cd', 'As']",5.0,-16.25339727,0.0,0.0,
20665,Ba1Cd2P2,mp-8279,Ba(CdP)2,"['Ba', 'Cd', 'P']",5.0,-17.49593476,0.0,0.0,
6813,Ba1Cd2Sb2,mp-8150,Ba(CdSb)2,"['Ba', 'Cd', 'Sb']",5.0,-14.73259029,5.573655566415425e-05,0.0,
17305,Ba2Cl4O16,mp-1190390,Ba(ClO4)2,"['Ba', 'Cl', 'O']",22.0,-103.84284654,7.83727157314118e-05,-4.440892098500626e-15,
29686,As2Ba1Co2,mp-20563,Ba(CoAs)2,"['Ba', 'Co', 'As']",5.0,-28.53467191,0.0009513601874999722,0.0,
2111,Ba2Co4N4,mp-1029457,Ba(CoN)2,"['Ba', 'Co', 'N']",10.0,-69.2753953,8.195437500013725e-05,0.0,
28785,Ba4Co8Sn32,mp-1195776,Ba(CoSn4)2,"['Ba', 'Co', 'Sn']",44.0,-202.94799514,0.0006607022736151436,4.440892098500626e-15,
18599,Ba1Cr10S16,mp-1229162,Ba(Cr5S8)2,"['Ba', 'Cr', 'S']",27.0,-187.17880632,0.0,-1.7763568394002505e-15,
26563,As4Ba1Cu8,mp-14786,Ba(Cu2As)4,"['Ba', 'Cu', 'As']",13.0,-56.18091538,0.0012958581265101188,7.993605777301127e-15,
5362,Ba1Cu8P4,mp-14785,Ba(Cu2P)4,"['Ba', 'Cu', 'P']",13.0,-60.08344969,0.0017195964122596052,0.0,
29045,As2Ba1Cu2,mp-9247,Ba(CuAs)2,"['Ba', 'Cu', 'As']",5.0,-22.00428927,0.0002403973427735906,0.0,
2855,Ba2Cu4O4,mp-7374,Ba(CuO)2,"['Ba', 'Cu', 'O']",10.0,-53.44450708,3.1442268555004205e-05,0.0,
11917,Ba2Cu4P8,mp-568474,Ba(CuP2)2,"['Ba', 'Cu', 'P']",14.0,-70.06372773,0.0015073934137843636,4.440892098500626e-15,
24607,Ba4Cu8S8,mp-5970,Ba(CuS)2,"['Ba', 'Cu', 'S']",20.0,-92.07636498,0.006997379814696281,0.0,
3654,Ba2Cu4Sb4,mp-1080702,Ba(CuSb)2,"['Ba', 'Cu', 'Sb']",10.0,-41.40744095,0.0,0.0,
26167,Ba4Dy8S16,mp-1193410,Ba(DyS2)2,"['Ba', 'Dy', 'S']",28.0,-170.54876314,0.00011309534180181657,0.0,
11985,Ba4Dy8Se16,mp-1193797,Ba(DySe2)2,"['Ba', 'Dy', 'Se']",28.0,-155.7241418,0.00044510486886117917,0.0,
21358,Ba4Dy8Te16,mp-17927,Ba(DyTe2)2,"['Ba', 'Dy', 'Te']",28.0,-137.97148947,0.0,0.0,
17008,Ba4Er8S16,mp-1192439,Ba(ErS2)2,"['Ba', 'Er', 'S']",28.0,-170.26276702,2.7014910713774043e-05,0.0,
24494,Ba4Er8Se16,mp-1192805,Ba(ErSe2)2,"['Ba', 'Er', 'Se']",28.0,-155.23352241,0.00011062803989947412,0.0,
25051,Ba4Er8Te16,mp-17928,Ba(ErTe2)2,"['Ba', 'Er', 'Te']",28.0,-137.25782155,0.0,0.0,
25478,Ba8Br64Fe16,mp-568396,Ba(FeBr4)2,"['Ba', 'Fe', 'Br']",88.0,-342.88956091,0.0018271359881039118,-1.7763568394002505e-15,
26423,Ba4Fe8O16,mp-19154,Ba(FeO2)2,"['Ba', 'Fe', 'O']",28.0,-184.05818492,0.015167270239948571,0.0,
25353,Ba1Fe2P2,mp-4883,Ba(FeP)2,"['Ba', 'Fe', 'P']",5.0,-33.74836295,0.0,0.0,
7088,Ba1Fe4Sb12,mp-1189647,Ba(FeSb3)4,"['Ba', 'Fe', 'Sb']",17.0,-88.3952861,2.7700539977359995e-06,-2.6645352591003757e-15,
11302,As8Ba4Ga8,mp-1183302,Ba(GaAs)2,"['Ba', 'Ga', 'As']",20.0,-82.18345542,0.0025288128623044415,0.0,
30708,Ba1Ga2H2,mp-1206799,Ba(GaH)2,"['Ba', 'Ga', 'H']",5.0,-16.91781683,0.0007532294589815969,-3.1086244689504383e-15,
12291,Ba8Ga16O32,mp-1228877,Ba(GaO2)2,"['Ba', 'Ga', 'O']",56.0,-346.48383388,0.0035089871107700787,0.0,
22426,Ba4Ga8P8,mp-1105728,Ba(GaP)2,"['Ba', 'Ga', 'P']",20.0,-88.33176006,0.0,0.0,
22728,Ba4Ga8Pt8,mp-504985,Ba(GaPt)2,"['Ba', 'Ga', 'Pt']",20.0,-96.7421274,0.0026675710400390074,0.0,
4547,Ba12Ga24S48,mp-849286,Ba(GaS2)2,"['Ba', 'Ga', 'S']",84.0,-392.93282433,0.014967644229910704,0.0,
16287,Ba8Ga16Sb16,mp-29938,Ba(GaSb)2,"['Ba', 'Ga', 'Sb']",40.0,-150.99029076,0.0,0.0,
5827,Ba2Ga4Se8,mp-7841,Ba(GaSe2)2,"['Ba', 'Ga', 'Se']",14.0,-59.22451828,0.00046951730119992874,0.0,
28284,Ba1Ga2Te4,mp-38117,Ba(GaTe2)2,"['Ba', 'Ga', 'Te']",7.0,-26.04121548,0.007275465398995706,0.0,
14728,Ba4Gd8S16,mp-1192904,Ba(GdS2)2,"['Ba', 'Gd', 'S']",28.0,-246.68114214,0.015598264810268603,0.0,
3190,Ba4Gd8Se16,mp-1194410,Ba(GdSe2)2,"['Ba', 'Gd', 'Se']",28.0,-231.78502956,0.006473776003069531,0.0,
16012,Ba4Gd8Te16,mp-1182773,Ba(GdTe2)2,"['Ba', 'Gd', 'Te']",28.0,-214.4910771,0.0,0.0,
8111,Ba1Ge12Pt4,mp-642304,Ba(Ge3Pt)4,"['Ba', 'Ge', 'Pt']",17.0,-87.95775196,0.0,0.0,
28384,As8Ba4Ge8,mp-27810,Ba(GeAs)2,"['Ba', 'Ge', 'As']",20.0,-91.96619285,0.0,0.0,
1544,Au2Ba1Ge2,mp-1228646,Ba(GeAu)2,"['Ba', 'Ge', 'Au']",5.0,-20.16340341,0.0,0.0,
3337,Ba1Ge2Rh2,mp-10698,Ba(GeRh)2,"['Ba', 'Ge', 'Rh']",5.0,-29.60225679,0.0,0.0,
15937,Ba2H8O12,mp-625888,Ba(H2O3)2,"['Ba', 'H', 'O']",22.0,-111.99599497,0.009661719336825136,0.0,
605,Ba2H32O20,mp-626268,Ba(H8O5)2,"['Ba', 'H', 'O']",54.0,-273.10215228,-3.730349362740526e-14,-3.730349362740526e-14,
4325,Ba8H16O16,mp-626973,Ba(HO)2,"['Ba', 'H', 'O']",40.0,-220.13838146,0.0019135744619136474,0.0,
20681,Ba4Ho8S16,mp-1193583,Ba(HoS2)2,"['Ba', 'Ho', 'S']",28.0,-170.37159909,5.5669532645019615e-05,0.0,
9093,Ba4Ho8Te16,mp-17273,Ba(HoTe2)2,"['Ba', 'Ho', 'Te']",28.0,-137.58227217,0.0,0.0,
19212,Ba2I4O12,mp-30991,Ba(IO3)2,"['Ba', 'I', 'O']",18.0,-88.8963002,0.0,0.0,
16328,Au8Ba4In8,mp-574176,Ba(InAu)2,"['Ba', 'In', 'Au']",20.0,-66.86943647,0.0,0.0,
3752,Ba4In8P8,mp-1105940,Ba(InP)2,"['Ba', 'In', 'P']",20.0,-84.2171448,0.0001111590478517499,0.0,
8827,Ba1In2Pt2,mp-1214750,Ba(InPt)2,"['Ba', 'In', 'Pt']",5.0,-22.89046197,0.0017072580996089215,0.0,
24671,Ba8In16S32,mp-21943,Ba(InS2)2,"['Ba', 'In', 'S']",56.0,-252.16890099,8.595295479896237e-05,0.0,
31316,Ba8In16Se32,mp-21766,Ba(InSe2)2,"['Ba', 'In', 'Se']",56.0,-229.18391086,0.00019576859584091721,-1.7763568394002505e-15,
12102,Ba2In4Te8,mp-21183,Ba(InTe2)2,"['Ba', 'In', 'Te']",14.0,-50.89272811,0.0,3.552713678800501e-15,
18679,Ba3Ir6O18,mp-674187,Ba(IrO3)2,"['Ba', 'Ir', 'O']",27.0,-181.62069426,0.036360001727429925,0.0,
16094,Ba4Lu8S16,mp-984052,Ba(LuS2)2,"['Ba', 'Lu', 'S']",28.0,-169.6430711,0.0002795434082027981,0.0,
10815,Ba4Lu8Se16,mp-1192674,Ba(LuSe2)2,"['Ba', 'Lu', 'Se']",28.0,-154.32070952,0.00039787777343747166,0.0,
27895,Ba4Lu8Te16,mp-1192634,Ba(LuTe2)2,"['Ba', 'Lu', 'Te']",28.0,-136.04839259,0.0,2.6645352591003757e-15,
3780,As2Ba1Mg2,mp-8280,Ba(MgAs)2,"['Ba', 'Mg', 'As']",5.0,-19.16305218,0.0,0.0,
28783,Ba1Bi2Mg2,mp-29209,Ba(MgBi)2,"['Ba', 'Mg', 'Bi']",5.0,-15.92034959,0.0,0.0,
26749,Ba1Mg2P2,mp-8278,Ba(MgP)2,"['Ba', 'Mg', 'P']",5.0,-20.6012214,0.0,0.0,
30656,Ba2Mg4Pb4,mp-20452,Ba(MgPb)2,"['Ba', 'Mg', 'Pb']",10.0,-28.84687651,0.0,0.0,
9135,Ba1Mg2Sb2,mp-9567,Ba(MgSb)2,"['Ba', 'Mg', 'Sb']",5.0,-17.22117137,0.0,0.0,
25931,Ba4Mg8Sn8,mp-29622,Ba(MgSn)2,"['Ba', 'Mg', 'Sn']",20.0,-62.23458273,0.0,0.0,
27845,Ba1Mn2P2,mp-19857,Ba(MnP)2,"['Ba', 'Mn', 'P']",5.0,-34.87960363,0.0015511978281246286,0.0,
13516,Ba1Mo6S8,mp-5716,Ba(Mo3S4)2,"['Ba', 'Mo', 'S']",15.0,-113.52631262,2.7533531010703882e-14,2.7533531010703882e-14,
12068,Ba12Mo24N48,mp-1029505,Ba(MoN2)2,"['Ba', 'Mo', 'N']",84.0,-723.17361966,0.04328092011265383,1.7763568394002505e-15,
11294,Ba4N8O24,mp-4396,Ba(NO3)2,"['Ba', 'N', 'O']",36.0,-233.89154244,2.683285698790172e-05,0.0,
9021,Ba12N48Nb24,mp-1029502,Ba(NbN2)2,"['Ba', 'Nb', 'N']",84.0,-741.17549127,0.0,0.0,
6679,Ba4Nd8S16,mp-866306,Ba(NdS2)2,"['Ba', 'Nd', 'S']",28.0,-170.49059682,0.0042313269503342354,0.0,
1410,B6Ba1Ni12,mp-17236,Ba(Ni2B)6,"['Ba', 'Ni', 'B']",19.0,-117.26777551,0.0,1.7763568394002505e-15,
17441,As2Ba1Ni2,mp-568280,Ba(NiAs)2,"['Ba', 'Ni', 'As']",5.0,-26.08390932,0.00018209474023489491,0.0,
12697,Ba1Ni2P2,mp-9473,Ba(NiP)2,"['Ba', 'Ni', 'P']",5.0,-28.1812147,0.00038692755371005916,0.0,
27181,Ba1Ni2P4,mp-571420,Ba(NiP2)2,"['Ba', 'Ni', 'P']",7.0,-39.72035485,0.00039253136858263815,0.0,
29404,Au4Ba2P8,mp-1104130,Ba(P2Au)2,"['Ba', 'P', 'Au']",14.0,-66.89079946,0.0019335791336496655,4.440892098500626e-15,
27336,Ba1P4Pd2,mp-28895,Ba(P2Pd)2,"['Ba', 'P', 'Pd']",7.0,-38.58846915,0.00514721755161851,0.0,
8243,Ba1Ir2P2,mp-11169,Ba(PIr)2,"['Ba', 'P', 'Ir']",5.0,-34.65496661,2.6645352591003757e-15,6.217248937900877e-15,
12078,Ba12N48P24,mp-2983,Ba(PN2)2,"['Ba', 'P', 'N']",84.0,-623.09879111,0.0001042352976190486,0.0,
31837,Ba4O24P8,mp-559939,Ba(PO3)2,"['Ba', 'P', 'O']",36.0,-260.57727889,3.216326604604802e-05,0.0,
18783,Ba1Os2P2,mp-12056,Ba(POs)2,"['Ba', 'P', 'Os']",5.0,-38.5579884,0.0012975226367188952,0.0,
31288,Ba1P2Pd2,mp-8236,Ba(PPd)2,"['Ba', 'P', 'Pd']",5.0,-27.09451176,0.0016359780781298738,4.440892098500626e-15,
25468,Ba1P2Rh2,mp-8583,Ba(PRh)2,"['Ba', 'P', 'Rh']",5.0,-32.25023668,0.0011993070664120253,0.0,
26020,Ba1P2Ru2,mp-4484,Ba(PRu)2,"['Ba', 'P', 'Ru']",5.0,-36.00390732,0.0010617977187497019,0.0,
8589,Ba2O8Pd4,mp-759541,Ba(PdO2)2,"['Ba', 'Pd', 'O']",14.0,-79.90384357,0.030503647239113363,0.0,
21884,Ba2Pd4S8,mp-28967,Ba(PdS2)2,"['Ba', 'Pd', 'S']",14.0,-69.37746303,0.0,0.0,
3270,Ba2Pb12Rh6,mp-30432,Ba(RhPb2)3,"['Ba', 'Rh', 'Pb']",20.0,-97.4290007,0.0,-4.440892098500626e-15,
16614,Ba1Os4Sb12,mp-1106056,Ba(Sb3Os)4,"['Ba', 'Sb', 'Os']",17.0,-99.17913426,6.795875462373147e-07,0.0,
3671,Ba1Ru4Sb12,mp-9976,Ba(Sb3Ru)4,"['Ba', 'Sb', 'Ru']",17.0,-94.15825782,8.052609144826306e-06,0.0,
3336,Ba1O6Sb2,mp-9127,Ba(SbO3)2,"['Ba', 'Sb', 'O']",9.0,-57.13465731,2.4694346780762544e-06,0.0,
7906,Ba2Pd4Sb4,mp-1079967,Ba(SbPd)2,"['Ba', 'Sb', 'Pd']",10.0,-49.10780796,0.0,0.0,
5811,Ba8S32Sb16,mp-28129,Ba(SbS2)2,"['Ba', 'Sb', 'S']",56.0,-260.46300105,0.0,0.0,
15695,Ba8Sb16Se32,mp-4727,Ba(SbSe2)2,"['Ba', 'Sb', 'Se']",56.0,-237.86261868,0.0002841072593469107,-1.7763568394002505e-15,
16571,Ba4Sc8Te16,mp-17501,Ba(ScTe2)2,"['Ba', 'Sc', 'Te']",28.0,-147.85706986,0.0,0.0,
17131,Ba1N8Si6,mp-567771,Ba(Si3N4)2,"['Ba', 'Si', 'N']",15.0,-117.99175801,1.1993984383451561e-06,0.0,
23497,Ba4Ir8Si8,mp-14561,Ba(SiIr)2,"['Ba', 'Si', 'Ir']",20.0,-138.86069121,0.0,0.0,
11490,Ba2Ni4Si4,mp-27388,Ba(SiNi)2,"['Ba', 'Si', 'Ni']",10.0,-54.21974134,0.0006332482021491614,0.0,
14409,Ba4Rh8Si8,mp-18655,Ba(SiRh)2,"['Ba', 'Si', 'Rh']",20.0,-127.39492596,1.7763568394002505e-15,0.0,
14224,Ba2Ru6Sn12,mp-1190471,Ba(Sn2Ru)3,"['Ba', 'Sn', 'Ru']",20.0,-113.65956271,0.0026736436747949455,-9.769962616701378e-15,
23670,Ba12N48Ta24,mp-1029616,Ba(TaN2)2,"['Ba', 'Ta', 'N']",84.0,-798.29386629,7.515102305788446e-06,0.0,
18187,Ba4S16Tb8,mp-1193223,Ba(TbS2)2,"['Ba', 'Tb', 'S']",28.0,-170.71474285,0.0001078385393418202,0.0,
25188,Ba4Tb8Te16,mp-17153,Ba(TbTe2)2,"['Ba', 'Tb', 'Te']",28.0,-138.35425144,0.0,0.0,
8197,Ba4S16Tm8,mp-1193579,Ba(TmS2)2,"['Ba', 'Tm', 'S']",28.0,-169.49870721,8.501122907400571e-05,0.0,
28655,Ba4Se16Tm8,mp-1193169,Ba(TmSe2)2,"['Ba', 'Tm', 'Se']",28.0,-154.34618287,0.00014206337612687747,0.0,
28221,Ba4Te16Tm8,mp-18196,Ba(TmTe2)2,"['Ba', 'Tm', 'Te']",28.0,-136.23078483,0.0,0.0,
9106,Ba1S16V12,mp-1228781,Ba(V3S4)4,"['Ba', 'V', 'S']",29.0,-208.65796442,0.0006313538496760529,0.0,
30514,Ba1S16V10,mp-1228772,Ba(V5S8)2,"['Ba', 'V', 'S']",27.0,-187.42381175,0.021201893927693227,0.0,
15563,Ba12N48V24,mp-1029918,Ba(VN2)2,"['Ba', 'V', 'N']",84.0,-717.49261769,0.015046074107615937,0.0,
10336,Ba4S16Y8,mp-29036,Ba(YS2)2,"['Ba', 'Y', 'S']",28.0,-185.52281378,0.0,0.0,
11103,Ba4Se16Y8,mp-1193099,Ba(YSe2)2,"['Ba', 'Y', 'Se']",28.0,-170.87249603,9.93064760050899e-05,0.0,
4282,Ba4Te16Y8,mp-17872,Ba(YTe2)2,"['Ba', 'Y', 'Te']",28.0,-153.34688731,0.0,0.0,
15009,As8Ba4Zn8,mp-7427,Ba(ZnAs)2,"['Ba', 'Zn', 'As']",20.0,-68.57908711,0.003401143767578052,0.0,
4467,Ba1P2Zn2,mp-7426,Ba(ZnP)2,"['Ba', 'Zn', 'P']",5.0,-18.51491402,0.025770858109375183,0.0,
23177,Ba4Sb8Zn8,mp-14207,Ba(ZnSb)2,"['Ba', 'Zn', 'Sb']",20.0,-61.42696031,0.004188105105468853,0.0,
14441,Ba1Si2Zn2,mp-1070267,Ba(ZnSi)2,"['Ba', 'Zn', 'Si']",5.0,-16.77693394,0.0030116098271482095,0.0,
31464,Ba2Sn4Zn4,mp-13920,Ba(ZnSn)2,"['Ba', 'Zn', 'Sn']",10.0,-29.0738995,0.0004935033691406687,0.0,
28837,Ba10Bi9Ce1O30,mp-1228865,Ba10Ce(Bi3O10)3,"['Ba', 'Ce', 'Bi', 'O']",50.0,-306.469363,0.0004977009375002339,0.0,
5498,Ba10Br4I1N5,mp-1228784,Ba10IBr4N5,"['Ba', 'I', 'Br', 'N']",20.0,-91.9672246,0.00231986893798819,0.0,
25656,Ba20Bi8Li4O42,mp-774832,Ba10Li2Bi4O21,"['Ba', 'Li', 'Bi', 'O']",74.0,-431.33197183,0.042356779799403554,0.0,
559,Ba10Mo5Nd4O30Y1,mp-1228897,Ba10Nd4Y(MoO6)5,"['Ba', 'Nd', 'Y', 'Mo', 'O']",50.0,-361.01531029,0.0021784377546847367,0.0,
24368,Ba10O24P6S1,mp-16990,Ba10P6SO24,"['Ba', 'P', 'S', 'O']",41.0,-291.25456744,2.4161928360300067e-06,0.0,
11753,Ba11Bi14Cd8,mp-607525,Ba11(Cd4Bi7)2,"['Ba', 'Cd', 'Bi']",33.0,-104.37508762,0.005069237731324172,0.0,
21807,Ba22O48Os8,mp-559484,Ba11(OsO6)4,"['Ba', 'Os', 'O']",78.0,-533.43372541,0.009165492039262979,0.0,
1705,Ba22Bi20,mp-542293,Ba11Bi10,"['Ba', 'Bi']",42.0,-157.41664358,0.003180804837173312,0.0,
22076,Ba22In12O6,mp-605809,Ba11In6O3,"['Ba', 'In', 'O']",40.0,-145.57122721,0.00744921171777424,0.0,
25490,Ba12Li8N6Na15,mp-567643,Ba12Na15Li8N6,"['Ba', 'Na', 'Li', 'N']",41.0,-117.24762398,0.0038560965362992583,0.0,
14853,Ba13Bi11O36,mp-758120,Ba13Bi11O36,"['Ba', 'Bi', 'O']",60.0,-356.65143483,0.004238246912921184,0.0,
23855,Ba13Dy8O37Pt4Zn4,mp-555356,Ba13Dy8Zn4Pt4O37,"['Ba', 'Dy', 'Zn', 'Pt', 'O']",66.0,-435.96353926,0.004095807406486962,0.0,
21747,As22Ba13Si6Sn8,mp-1197065,Ba13Si6(Sn4As11)2,"['Ba', 'Si', 'Sn', 'As']",49.0,-225.50538214,0.00017758616949148376,1.7763568394002505e-15,
24333,Al4Ba56Sb44,mp-530714,Ba14AlSb11,"['Ba', 'Al', 'Sb']",104.0,-411.22231847,0.0,0.0,
15486,Ba42Ir24O99Pd9,mp-738639,Ba14Ir8(PdO11)3,"['Ba', 'Ir', 'Pd', 'O']",174.0,-1129.4039926,-8.881784197001252e-16,-6.217248937900877e-15,
13352,Ba14Ca1N6Na14,mp-6645,Ba14Na14CaN6,"['Ba', 'Na', 'Ca', 'N']",35.0,-106.60250666,0.0,0.0,
31283,Ba14Li1N6Na14,mp-645662,Ba14Na14LiN6,"['Ba', 'Na', 'Li', 'N']",35.0,-105.8179858,0.000452316986607304,0.0,
7918,Ba28Ca2N12Na14,mp-570449,Ba14Na7CaN6,"['Ba', 'Na', 'Ca', 'N']",56.0,-194.15667088,0.0020979377769250185,0.0,
29485,Ba30Se84Zr28,mp-620609,Ba15(ZrSe3)14,"['Ba', 'Zr', 'Se']",142.0,-826.62968797,0.0,0.0,
19769,Ba32N38Nb10,mp-30001,Ba16Nb5N19,"['Ba', 'Nb', 'N']",80.0,-546.98003122,1.408118554735438e-05,0.0,
29670,Ba16O37Re6,mp-1197806,Ba16Re6O37,"['Ba', 'Re', 'O']",59.0,-427.79207673,-2.7533531010703882e-14,-8.881784197001252e-16,
21505,Ba17Er16O57Pt4Zn8,mp-561249,Ba17Er16Zn8Pt4O57,"['Ba', 'Er', 'Zn', 'Pt', 'O']",102.0,-689.34143717,0.0026841621509303693,0.0,
21556,Ba17Ho16O57Pt4Zn8,mp-555188,Ba17Ho16Zn8Pt4O57,"['Ba', 'Ho', 'Zn', 'Pt', 'O']",102.0,-688.84201128,0.0007061396547642929,0.0,
12205,Ba17O57Pt4Tm16Zn8,mp-557741,Ba17Tm16Zn8Pt4O57,"['Ba', 'Tm', 'Zn', 'Pt', 'O']",102.0,-689.02954621,0.005307357641118671,0.0,
29400,Ba17O57Pt4Y16Zn8,mp-560146,Ba17Y16Zn8Pt4O57,"['Ba', 'Y', 'Zn', 'Pt', 'O']",102.0,-716.1893836,0.0035187664646549877,0.0,
29918,Ag5Al5Ba2,mp-1228156,Ba2(AlAg)5,"['Ba', 'Al', 'Ag']",12.0,-40.08335583,0.0005552830061850145,0.0,
9127,Ba8Cu12O24,mp-615789,Ba2(CuO2)3,"['Ba', 'Cu', 'O']",44.0,-245.46362758,0.007929068449928245,0.0,
9117,As20Ba8In20,mp-644875,Ba2(InAs)5,"['Ba', 'In', 'As']",48.0,-189.08442121,0.008983452028096472,0.0,
17184,Ba4Ir6O18,mp-510508,Ba2(IrO3)3,"['Ba', 'Ir', 'O']",28.0,-189.80459364,6.15666029633033e-05,6.217248937900877e-15,
1055,Ba8Mo24S36,mp-532273,Ba2(Mo2S3)3,"['Ba', 'Mo', 'S']",68.0,-495.6975171,0.0,0.0,
31274,Ba8Sb24Sn12,mp-29087,Ba2(SnSb2)3,"['Ba', 'Sn', 'Sb']",44.0,-180.92005175,2.98257723763129e-06,0.0,
27367,As26Ba40,mp-685008,Ba20As13,"['Ba', 'As']",66.0,-268.52831397,0.00020077229403359098,0.0,
21660,Ba20Ga5O44Ru7,mp-1229333,Ba20Ga5Ru7O44,"['Ba', 'Ga', 'Ru', 'O']",76.0,-496.74366078,0.0,0.0,
28097,Ba20O48Pt1Ru11,mp-1229136,Ba20Ru11PtO48,"['Ba', 'Ru', 'Pt', 'O']",80.0,-535.21623542,0.03796647253320362,0.0,
15397,Ba84Bi72Cd16,mp-1215155,Ba21(Cd2Bi9)2,"['Ba', 'Cd', 'Bi']",172.0,-603.42408871,0.0,3.1086244689504383e-15,
23406,Ba84Cd16Sb72,mp-684034,Ba21(Cd2Sb9)2,"['Ba', 'Cd', 'Sb']",172.0,-641.61506706,0.0,0.0,
26476,Al40Ba21,mp-567701,Ba21Al40,"['Ba', 'Al']",61.0,-204.96470868,0.00044571972143980787,0.0,
8416,Ag16Ba4S14,mp-1228614,Ba2Ag8S7,"['Ba', 'Ag', 'S']",34.0,-129.256502,0.000698032571230911,0.0,
31794,Al3Ba6Cu6F33,mp-561318,Ba2AlCu2F11,"['Ba', 'Al', 'Cu', 'F']",48.0,-250.9307678,-9.769962616701378e-15,0.0,
25939,Al4Ba8H28,mp-698114,Ba2AlH7,"['Ba', 'Al', 'H']",40.0,-141.59431103,0.00010635388866520046,-6.661338147750939e-15,
18543,As8Ba8O28,mp-1194732,Ba2As2O7,"['Ba', 'As', 'O']",44.0,-282.30692283,0.0005163745578711243,-1.2434497875801753e-14,
8628,As16Ba16S40,mp-28134,Ba2As2S5,"['Ba', 'As', 'S']",72.0,-349.36762403,0.0,0.0,
21792,As8Ba8Se20,mp-28348,Ba2As2Se5,"['Ba', 'As', 'Se']",36.0,-159.80629034,1.1917231987901289e-05,0.0,