,Composition,MaterialId,Reduced Formula,Elements,NSites,Corrected Energy,Decomposition Energy Per Atom All,Decomposition Energy Per Atom MP,Directory
13982,Eu2Pt4,mp-22797,EuPt2,"['Eu', 'Pt']",6.0,-50.57675851,0.025941986818034835,0.0,
31147,Eu2Rh4,mp-623827,EuRh2,"['Eu', 'Rh']",6.0,-52.6848299,0.03286485716145826,0.0,
16970,Eu4O12Rh4,mp-19801,EuRhO3,"['Eu', 'Rh', 'O']",20.0,-165.85801777,0.13753140520116425,-7.105427357601002e-15,
30486,Eu1S1,mp-20587,EuS,"['Eu', 'S']",2.0,-18.70536446,0.027722372050781985,0.0,
30810,Eu4S8,mp-1232155,EuS2,"['Eu', 'S']",12.0,-90.86003394,0.05111094797960192,0.0,
5411,Eu4O16S4,mp-616175,EuSO4,"['Eu', 'S', 'O']",24.0,-188.49709269,0.024055367449545173,0.0,
4185,Eu2Sb4,mp-611062,EuSb2,"['Eu', 'Sb']",6.0,-41.38250723,0.020013448523762634,0.0,
17913,Au2Eu2Sb2,mp-22475,EuSbAu,"['Eu', 'Sb', 'Au']",6.0,-40.56223741,0.014706637314453097,0.0,
6300,Eu4O16Sb4,mp-510637,EuSbO4,"['Eu', 'Sb', 'O']",24.0,-185.84816758,0.04166970410481774,0.0,
13628,Eu4Pd4Sb4,mp-1101822,EuSbPd,"['Eu', 'Sb', 'Pd']",12.0,-89.94223076,0.023212388245442916,0.0,
29189,Eu4Pt4Sb4,mp-20923,EuSbPt,"['Eu', 'Sb', 'Pt']",12.0,-94.03232031,0.023210154423828122,0.0,
20891,Eu1Se1,mp-21009,EuSe,"['Eu', 'Se']",2.0,-17.83845582,0.021788348239745403,0.0,
7819,Eu2Se4,mp-1232230,EuSe2,"['Eu', 'Se']",6.0,-42.64973835,0.038076475764974305,0.0,
23910,Cl4Eu4O12Se4,mp-639138,EuSeClO3,"['Eu', 'Se', 'Cl', 'O']",24.0,-162.4158046,0.0386985967854816,-6.217248937900877e-15,
22591,Eu2O6Se2,mp-755177,EuSeO3,"['Eu', 'Se', 'O']",10.0,-75.64194935,0.021117882382812425,-7.105427357601002e-15,
24035,Eu4O16Se4,mp-769334,EuSeO4,"['Eu', 'Se', 'O']",24.0,-173.83396642,0.012023585445963825,0.0,
19674,Eu2Si2,mp-21279,EuSi,"['Eu', 'Si']",4.0,-33.79881709,0.035388317832032,0.0,
19750,Eu2Si4,mp-1072248,EuSi2,"['Eu', 'Si']",6.0,-45.32904996,0.027113229933267924,0.0,
3166,Eu4N8O8Si8,mp-560341,EuSi2(NO)2,"['Eu', 'Si', 'N', 'O']",28.0,-248.64145014,0.0038779665401804664,0.0,
27856,Eu2Ni2Si4,mp-1025553,EuSi2Ni,"['Eu', 'Si', 'Ni']",8.0,-59.07826008,0.024839682382812533,0.0,
18286,Eu2Ni18Si4,mp-1190872,EuSi2Ni9,"['Eu', 'Si', 'Ni']",24.0,-155.85898664,0.009219138819986483,0.0,
17828,Eu2Pt2Si4,mp-1212688,EuSi2Pt,"['Eu', 'Si', 'Pt']",8.0,-61.29704846,0.02082611489379893,0.0,
4778,Eu1Ir1Si3,mp-1069707,EuSi3Ir,"['Eu', 'Si', 'Ir']",5.0,-39.00719323,0.018342085201172864,0.0,
3183,Eu1Ni1Si3,mp-1225162,EuSi3Ni,"['Eu', 'Si', 'Ni']",5.0,-35.18400746,0.018682934116942995,0.0,
18,Eu1Rh1Si3,mp-1068807,EuSi3Rh,"['Eu', 'Si', 'Rh']",5.0,-37.44816769,0.019038794763671874,0.0,
17648,Eu1Ge1Ni2Si1,mp-1225155,EuSiNi2Ge,"['Eu', 'Si', 'Ni', 'Ge']",5.0,-35.0106393,0.0,0.0,
2867,Eu4Pd4Si4,mp-1102440,EuSiPd,"['Eu', 'Si', 'Pd']",12.0,-93.0311084,0.03514972373195224,0.0,
30174,Eu4Pt4Si4,mp-1103258,EuSiPt,"['Eu', 'Si', 'Pt']",12.0,-99.46810631,0.020425044845378437,0.0,
10609,Eu2Sn2,mp-567833,EuSn,"['Eu', 'Sn']",4.0,-31.35512356,0.04153775166259788,0.0,
6832,Eu2Ir2Sn4,mp-22742,EuSn2Ir,"['Eu', 'Sn', 'Ir']",8.0,-59.09840112,0.015828960799560754,0.0,
20723,Eu1Sn3,mp-20387,EuSn3,"['Eu', 'Sn']",4.0,-24.28766241,0.016336465065918127,0.0,
14634,Eu4Sb16Sn12,mp-1195875,EuSn3Sb4,"['Eu', 'Sn', 'Sb']",32.0,-164.22459277,0.014046210237479428,0.0,
24016,Au2Eu1Sn1,mp-867138,EuSnAu2,"['Eu', 'Sn', 'Au']",4.0,-23.27482663,0.025828693299560612,0.0,
28844,Eu4F28Sn4,mp-21580,EuSnF7,"['Eu', 'Sn', 'F']",36.0,-215.78841182,0.10268230309570381,0.0,
20448,Eu2Hg2Sn2,mp-1018701,EuSnHg,"['Eu', 'Sn', 'Hg']",6.0,-32.55020222,0.015469099197590985,0.0,
10814,Eu2P2Sn2,mp-19794,EuSnP,"['Eu', 'Sn', 'P']",6.0,-44.2706836,0.024218189469401352,0.0,
11521,Eu4Pd4Sn4,mp-22031,EuSnPd,"['Eu', 'Sn', 'Pd']",12.0,-87.60818338,0.021582405100911473,0.0,
18713,Eu4Pt4Sn4,mp-608517,EuSnPt,"['Eu', 'Sn', 'Pt']",12.0,-92.55633252,0.02482502234049555,0.0,
4229,Eu4O24Ta8,mp-505434,EuTa2O6,"['Eu', 'Ta', 'O']",36.0,-363.37205035,0.006077126508227337,0.0,
23962,Eu2O18Ta6,mp-1225272,EuTa3O9,"['Eu', 'Ta', 'O']",26.0,-255.59835981,0.015032087761399637,-1.7763568394002505e-14,
3175,Eu2O8Ta2,mp-5957,EuTaO4,"['Eu', 'Ta', 'O']",12.0,-118.62046605,0.04151634336751364,0.0,
12088,Eu1Te1,mp-542583,EuTe,"['Eu', 'Te']",2.0,-16.79700487,0.01859891387695356,0.0,
29238,Eu1Pb1Te2,mp-1225161,EuTe2Pb,"['Eu', 'Te', 'Pb']",4.0,-24.4645955,0.010689297912596984,0.0,
4135,Cl2Eu2O6Ti2,mp-555860,EuTiClO3,"['Eu', 'Ti', 'Cl', 'O']",12.0,-102.77222066,0.0382927536344404,0.0,
3468,Eu2O6Ti2,mp-1079111,EuTiO3,"['Eu', 'Ti', 'O']",10.0,-97.51819363,0.018484909460937615,0.0,
6361,Eu4Mo8O32Tl4,mp-602551,EuTl(MoO4)2,"['Eu', 'Tl', 'Mo', 'O']",48.0,-353.16954879,0.021749766826156147,0.0,
3109,Eu2O16Tl2W4,mp-1212775,EuTl(WO4)2,"['Eu', 'Tl', 'W', 'O']",24.0,-183.01504424,0.01651984854153099,0.0,
18199,Eu2Tl4,mp-30630,EuTl2,"['Eu', 'Tl']",6.0,-31.94072062,0.020325650399983353,0.0,
12104,Cd1Eu1Tl2,mp-861902,EuTl2Cd,"['Eu', 'Tl', 'Cd']",4.0,-17.02692562,0.013592755655338351,0.0,
20508,Eu2Pd2Tl4,mp-3891,EuTl2Pd,"['Eu', 'Tl', 'Pd']",8.0,-43.89297949,0.009529011046142344,0.0,
20645,Eu1Tl3,mp-1064843,EuTl3,"['Eu', 'Tl']",4.0,-18.46481165,0.011925616094970337,0.0,
6960,Eu1Hg2Tl1,mp-1184250,EuTlHg2,"['Eu', 'Tl', 'Hg']",4.0,-14.73526581,0.011480470819499544,0.0,
2743,Eu4P4S16Tl4,mp-657233,EuTlPS4,"['Eu', 'Tl', 'P', 'S']",28.0,-163.68708702,0.0064274036174660765,0.0,
4264,Cu2Eu2S6Tm2,mp-12728,EuTmCuS3,"['Eu', 'Tm', 'Cu', 'S']",12.0,-82.61097786,0.006152225452472848,0.0,
10853,Eu4O32Se8V4,mp-1198609,EuV(SeO4)2,"['Eu', 'V', 'Se', 'O']",48.0,-331.20385867,0.02487617944172804,1.3322676295501878e-14,
20832,Eu4O12V4,mp-1178351,EuVO3,"['Eu', 'V', 'O']",20.0,-181.03277845,0.050307653427733356,0.0,
1482,Eu2O8V2,mp-22796,EuVO4,"['Eu', 'V', 'O']",12.0,-103.33669796,0.04263484508951798,-8.881784197001252e-15,
29848,Eu1Zn1,mp-1261,EuZn,"['Eu', 'Zn']",2.0,-12.06324348,0.027944280965575885,0.0,
12344,Eu2Zn22,mp-1191536,EuZn11,"['Eu', 'Zn']",24.0,-53.02469172,0.009993746082356925,0.0,
25626,Eu2Zn4,mp-681,EuZn2,"['Eu', 'Zn']",6.0,-27.41545487,0.02062225250162708,0.0,
7990,Eu1Zn5,mp-2436,EuZn5,"['Eu', 'Zn']",6.0,-18.09208297,0.006415686233724127,0.0,
24146,Au4Eu4Zn4,mp-1102568,EuZnAu,"['Eu', 'Zn', 'Au']",12.0,-66.76429846,0.021409907182616372,0.0,
16828,Eu2Ga2Zn2,mp-1225196,EuZnGa,"['Eu', 'Zn', 'Ga']",6.0,-31.82229554,0.021203141506347833,0.0,
7267,Eu4Pd4Zn4,mp-1102897,EuZnPd,"['Eu', 'Zn', 'Pd']",12.0,-74.54307398,0.0205429123518881,0.0,
22729,Eu2Si2Zn2,mp-21234,EuZnSi,"['Eu', 'Zn', 'Si']",6.0,-36.91347672,0.02394803791829503,0.0,
16199,Eu4Sn4Zn4,mp-11040,EuZnSn,"['Eu', 'Zn', 'Sn']",12.0,-68.75954869,0.022860485143229248,0.0,
7522,Eu2O72P18Zr12,mp-582856,EuZr6(PO4)9,"['Eu', 'Zr', 'P', 'O']",104.0,-861.1535162,0.004747604710034992,0.0,
10538,Eu2F12Zr2,mp-1212698,EuZrF6,"['Eu', 'Zr', 'F']",16.0,-120.30584221,0.08193423147507861,0.0,
1207,Eu2F14Zr2,mp-1212789,EuZrF7,"['Eu', 'Zr', 'F']",18.0,-128.83859892,0.1367079274316394,0.0,
25471,Eu4O12Zr4,mp-1106293,EuZrO3,"['Eu', 'Zr', 'O']",20.0,-199.27859997,0.007115851109370297,5.329070518200751e-15,
1837,Eu4S12Zr4,mp-1189927,EuZrS3,"['Eu', 'Zr', 'S']",20.0,-160.5952278,0.012502898669168871,7.105427357601002e-15,
12823,F4,mp-561203,F2,['F'],4.0,-7.64591587,8.492636413670596e-06,0.0,
17916,Fe1,mp-13,Fe,['Fe'],1.0,-8.47002121,0.0005550763159174465,0.0,
11162,B4Fe2Mo4,mp-1078299,Fe(BMo)2,"['Fe', 'B', 'Mo']",10.0,-91.42511441,0.015168307535155634,0.0,
30615,B2Fe1W2,mp-1068296,Fe(BW)2,"['Fe', 'B', 'W']",5.0,-49.87916735,0.0001514848339834174,0.0,
14119,Fe2I6O18,mp-23069,Fe(IO3)3,"['Fe', 'I', 'O']",26.0,-123.7149835,5.236895283466936e-05,9.769962616701378e-15,
11648,Fe4O24P8,mp-649683,Fe(PO3)2,"['Fe', 'P', 'O']",36.0,-259.38213835,0.0015690057942707725,0.0,
20982,Fe6O54P18,mp-541930,Fe(PO3)3,"['Fe', 'P', 'O']",78.0,-558.20487611,0.013837846659153996,0.0,
11835,Fe4O16Sb8,mp-22265,Fe(SbO2)2,"['Fe', 'Sb', 'O']",28.0,-173.88295079,0.0,-1.7763568394002505e-15,
25398,Fe4O24Sb8,mp-505009,Fe(SbO3)2,"['Fe', 'Sb', 'O']",36.0,-227.45430639,0.0,0.0,
15506,Fe1P4Si4,mp-9198,Fe(SiP)4,"['Fe', 'Si', 'P']",9.0,-54.37024354,0.0,0.0,
3081,Co5Fe11,mp-601848,Fe11Co5,"['Fe', 'Co']",16.0,-129.62424892,0.00115511205566321,0.0,
15242,Fe26Mo18,mp-1213182,Fe13Mo9,"['Fe', 'Mo']",44.0,-415.6337153,0.0,0.0,
26480,Fe8Mo12O48,mp-21925,Fe2(MoO4)3,"['Fe', 'Mo', 'O']",68.0,-474.99334571,8.070900733514463e-06,0.0,
29433,Fe4O24S6,mp-540767,Fe2(SO4)3,"['Fe', 'S', 'O']",34.0,-214.16562341,0.0,0.0,
1560,Fe8O60Se24,mp-555589,Fe2(Se2O5)3,"['Fe', 'Se', 'O']",92.0,-510.24840028,0.006270896455502495,-8.881784197001252e-16,
2015,Fe8O48Se12,mp-505098,Fe2(SeO4)3,"['Fe', 'Se', 'O']",68.0,-382.15641104,2.2121223575588544e-05,0.0,
554,As4F4Fe8O16,mp-1224755,Fe2AsO4F,"['Fe', 'As', 'O', 'F']",32.0,-202.66602393,0.00045656572509766846,0.0,
17974,B2Fe4,mp-1915,Fe2B,"['Fe', 'B']",6.0,-49.08382905,0.0008473189778648305,0.0,
17891,B4Fe4O10,mp-19333,Fe2B2O5,"['Fe', 'B', 'O']",18.0,-135.3100455,0.0006914555121539934,0.0,
25687,Co1Fe2Si1,mp-1207117,Fe2CoSi,"['Fe', 'Co', 'Si']",4.0,-30.97036891,0.0,0.0,
10631,Cu2Fe4O28P8,mp-510036,Fe2Cu(P2O7)2,"['Fe', 'Cu', 'P', 'O']",42.0,-293.46040121,0.0,-1.3322676295501878e-14,
25681,Cu6Fe4O36Se12,mp-558202,Fe2Cu3(SeO3)6,"['Fe', 'Cu', 'Se', 'O']",58.0,-317.37015584,0.0015638287958079644,-8.881784197001252e-16,
8329,Fe8H8O40Se12,mp-1213486,Fe2H2Se3O10,"['Fe', 'H', 'Se', 'O']",68.0,-383.47984,0.0,0.0,
19603,Fe8H24O60S12,mp-1199115,Fe2H6(SO5)3,"['Fe', 'H', 'S', 'O']",104.0,-607.11685843,0.0,0.0,
13482,Fe8Mo4P48,mp-28104,Fe2MoP12,"['Fe', 'Mo', 'P']",60.0,-393.2777634,6.217248937900877e-15,6.217248937900877e-15,
29161,Fe4Ni2O16P4,mp-17631,Fe2Ni(PO4)2,"['Fe', 'Ni', 'P', 'O']",26.0,-179.43623752,0.0,7.105427357601002e-15,
2685,Fe2H4Ni3O20Se6,mp-1212753,Fe2Ni3H4(Se3O10)2,"['Fe', 'Ni', 'H', 'Se', 'O']",35.0,-188.74608827,0.0004369939040183013,0.0,
30443,Fe8Ni4P4,mp-571370,Fe2NiP,"['Fe', 'Ni', 'P']",16.0,-118.66994969,0.0012003680383303461,0.0,
19481,Fe6P3,mp-778,Fe2P,"['Fe', 'P']",9.0,-71.18034274,0.008772842731662678,0.0,
10236,Fe8P48W4,mp-1199047,Fe2P12W,"['Fe', 'P', 'W']",60.0,-400.35395337,0.0,0.0,
12193,Fe4O14P4,mp-1102399,Fe2P2O7,"['Fe', 'P', 'O']",22.0,-158.36849306,0.0,0.0,
10623,F18Fe12O54P18,mp-1202233,Fe2P3(O3F)3,"['Fe', 'P', 'O', 'F']",102.0,-686.93903284,0.0006733386167274702,0.0,
27884,Fe4O32P8Pb6,mp-704946,Fe2P4Pb3O16,"['Fe', 'P', 'Pb', 'O']",50.0,-344.41018502,0.0006670613187580443,0.0,
16717,Cl4Fe8O16P4,mp-556581,Fe2PClO4,"['Fe', 'P', 'Cl', 'O']",32.0,-212.21199993,0.0001704771936035243,0.0,
23149,F4Fe8O16P4,mp-18121,Fe2PO4F,"['Fe', 'P', 'O', 'F']",32.0,-221.05818295,0.0,0.0,
7945,Fe4O24Pb2Se8,mp-1224708,Fe2Pb(SeO3)4,"['Fe', 'Pb', 'Se', 'O']",38.0,-217.10646748,0.0,-5.329070518200751e-15,
12960,Fe8Re12,mp-639789,Fe2Re3,"['Fe', 'Re']",20.0,-217.31996721,0.013916241143881791,0.0,
5022,Fe8O16Si4,mp-20313,Fe2SiO4,"['Fe', 'Si', 'O']",28.0,-204.02682206,0.0,0.0,
14251,Fe4O24Pb6Te4,mp-1225390,Fe2Te2(PbO4)3,"['Fe', 'Te', 'Pb', 'O']",38.0,-223.00174195,0.0004045215666002022,6.217248937900877e-15,
9772,Fe4O12Te2,mp-21437,Fe2TeO6,"['Fe', 'Te', 'O']",18.0,-111.77591718,0.0,0.0,
10289,Fe8W4,mp-20868,Fe2W,"['Fe', 'W']",12.0,-119.87191851,0.0,0.0,
406,Fe12O56P16,mp-559713,Fe3(P2O7)2,"['Fe', 'P', 'O']",84.0,-602.05064977,-5.329070518200751e-15,-5.329070518200751e-15,
15036,Fe6O16P4,mp-19346,Fe3(PO4)2,"['Fe', 'P', 'O']",26.0,-186.81494585,0.0,0.0,
13622,Fe12O48Te16,mp-561343,Fe3(TeO3)4,"['Fe', 'Te', 'O']",76.0,-448.25204353,0.011260083555201028,2.6645352591003757e-15,
20405,B44Fe12H4O80,mp-1203485,Fe3B11HO20,"['Fe', 'B', 'H', 'O']",140.0,-1079.97219716,0.0,0.0,
6395,B14Br2Fe6O26,mp-1181439,Fe3B7BrO13,"['Fe', 'B', 'Br', 'O']",48.0,-363.76129285,0.0,7.105427357601002e-15,
19952,B4Fe12O20,mp-22223,Fe3BO5,"['Fe', 'B', 'O']",36.0,-257.28267627,1.835122395732469e-05,0.0,
7732,Co1Fe3,mp-601820,Fe3Co,"['Fe', 'Co']",4.0,-32.70993492,0.00029356034423777544,0.0,
18366,Co3Fe3Si2,mp-1225227,Fe3Co3Si2,"['Fe', 'Co', 'Si']",8.0,-60.61818411,0.0,0.0,
24777,Fe3Ge1,mp-20711,Fe3Ge,"['Fe', 'Ge']",4.0,-30.45276775,0.0,0.0,
7697,Fe12Mo12N4,mp-510619,Fe3Mo3N,"['Fe', 'Mo', 'N']",28.0,-268.89214691,0.002215944620536092,1.7763568394002505e-15,
26459,Fe6Mo12N4Rh2,mp-1224957,Fe3Mo6RhN2,"['Fe', 'Mo', 'Rh', 'N']",24.0,-233.23874717,0.009763080939944047,0.0,
16705,Fe6N2,mp-1804,Fe3N,"['Fe', 'N']",8.0,-68.03691541,0.0,0.0,
9417,As4Fe3Ni1,mp-1224770,Fe3NiAs4,"['Fe', 'Ni', 'As']",8.0,-51.73401114,3.213105957033946e-05,0.0,
30791,Fe6Ni2P4,mp-1224799,Fe3NiP2,"['Fe', 'Ni', 'P']",12.0,-89.69191894,0.012144534235841498,0.0,
3075,Fe3Ni1P4,mp-1224771,Fe3NiP4,"['Fe', 'Ni', 'P']",8.0,-57.37721051,0.0016109617933661724,0.0,
311,Fe12P4,mp-18708,Fe3P,"['Fe', 'P']",16.0,-128.96864131,0.0001488905981439359,0.0,
27824,Fe6H4O20P4,mp-1199228,Fe3P2(HO5)2,"['Fe', 'P', 'H', 'O']",34.0,-228.81857592,0.00031858220128633263,0.0,
30044,Fe6O26P6Pb2,mp-1198984,Fe3P3PbO13,"['Fe', 'P', 'Pb', 'O']",40.0,-279.64348466,0.0,2.7533531010703882e-14,
7365,Fe6H24N4O32P8,mp-1205149,Fe3P4H12(NO8)2,"['Fe', 'P', 'H', 'N', 'O']",74.0,-460.93296308,0.0,0.0,
12525,Fe6O28P8Pb2,mp-1204465,Fe3P4PbO14,"['Fe', 'P', 'Pb', 'O']",44.0,-313.01183037,0.0005093983291910575,0.0,
11623,F38Fe6Pb10,mp-1213069,Fe3Pb5F19,"['Fe', 'Pb', 'F']",54.0,-273.82285918,0.0011119426501444707,0.0,
13157,Fe3N1Pd1,mp-16334,Fe3PdN,"['Fe', 'Pd', 'N']",5.0,-39.55401002,0.00014466348046937583,-1.7763568394002505e-15,
10766,Fe3N1Pt1,mp-579496,Fe3PtN,"['Fe', 'Pt', 'N']",5.0,-40.71512407,0.0,0.0,
9139,Fe3Rh1,mp-1184364,Fe3Rh,"['Fe', 'Rh']",4.0,-32.86319336,0.011373319469605292,0.0,
3731,Fe3N1Rh1,mp-580234,Fe3RhN,"['Fe', 'Rh', 'N']",5.0,-41.48217967,0.0061440983124967374,0.0,
17998,Br8Fe6O8Sb4,mp-1194355,Fe3Sb2(BrO)4,"['Fe', 'Sb', 'Br', 'O']",26.0,-133.73471572,0.0,0.0,
8840,Fe6I6O18Sb10,mp-1199909,Fe3Sb5(IO3)3,"['Fe', 'Sb', 'I', 'O']",40.0,-222.13692263,0.00043842411816452653,0.0,
13652,Fe3Si1,mp-2199,Fe3Si,"['Fe', 'Si']",4.0,-32.12265634,0.0,0.0,
20446,As20Fe8O44Pb2,mp-735662,Fe4As10PbO22,"['Fe', 'As', 'Pb', 'O']",74.0,-460.80629223,0.002024654989441821,0.0,
27846,As10Fe8O26,mp-28519,Fe4As5O13,"['Fe', 'As', 'O']",44.0,-280.01754176,0.002032192652133169,0.0,
6898,Fe8H6O30P6,mp-24470,Fe4P3(HO5)3,"['Fe', 'P', 'H', 'O']",50.0,-334.96925213,0.0,0.0,
22572,B4Fe10P2,mp-9913,Fe5B2P,"['Fe', 'B', 'P']",16.0,-128.44499452,0.0,0.0,
19554,Fe6H12O28Pb1S4,mp-743742,Fe6H12Pb(SO7)4,"['Fe', 'H', 'Pb', 'S', 'O']",51.0,-300.57589335,0.0011448464231005318,0.0,
23020,C2Fe12W12,mp-624243,Fe6W6C,"['Fe', 'W', 'C']",26.0,-277.01985137,0.00039145872596080267,0.0,
8585,As6Fe7O24,mp-510450,Fe7(AsO4)6,"['Fe', 'As', 'O']",37.0,-236.63729876,0.0017019621083189662,0.0,
4396,Br8Fe7O18Sb10,mp-1203691,Fe7Sb10(Br4O9)2,"['Fe', 'Sb', 'Br', 'O']",43.0,-237.66450828,0.0,0.0,
24250,Cl8Fe7O18Sb10,mp-1201515,Fe7Sb10(Cl4O9)2,"['Fe', 'Sb', 'Cl', 'O']",43.0,-242.30600615,0.0,0.0,
22560,Co7Fe9,mp-601842,Fe9Co7,"['Fe', 'Co']",16.0,-127.07267829,0.000286176258544657,0.0,
9317,Ag4Fe4O24Se8,mp-704626,FeAg(SeO3)2,"['Fe', 'Ag', 'Se', 'O']",40.0,-216.36997473,0.0004768005732422864,0.0,
26977,Ag2Fe1S8Sn3,mp-1225099,FeAg2Sn3S8,"['Fe', 'Ag', 'Sn', 'S']",14.0,-64.20987797,1.370387276811158e-05,0.0,
7654,Ag4Br16Fe4,mp-1212706,FeAgBr4,"['Fe', 'Ag', 'Br']",24.0,-82.43612281,0.0012239910913085517,0.0,
16691,Ag4Fe4O8,mp-19225,FeAgO2,"['Fe', 'Ag', 'O']",16.0,-89.82126881,0.0,0.0,
17480,Ag4Fe4O28P8,mp-1202376,FeAgP2O7,"['Fe', 'Ag', 'P', 'O']",44.0,-295.347076,0.00026379230291162514,0.0,
6223,As4Fe4,mp-427,FeAs,"['Fe', 'As']",8.0,-54.14223258,0.00041798713134788557,0.0,
11167,As8Fe8H32O48,mp-543041,FeAs(H2O3)2,"['Fe', 'As', 'H', 'O']",96.0,-543.20010826,0.0,0.0,
19926,As4Fe2,mp-2008,FeAs2,"['Fe', 'As']",6.0,-37.1612342,0.0,0.0,
22459,As8F36Fe2,mp-29757,FeAs4F18,"['Fe', 'As', 'F']",46.0,-215.65838545,0.0,0.0,
14931,As6Fe6O24,mp-19398,FeAsO4,"['Fe', 'As', 'O']",36.0,-227.96011054,3.108200520873794e-05,0.0,
12528,As4Fe4S4,mp-561511,FeAsS,"['Fe', 'As', 'S']",12.0,-74.46209828,1.0166323241023179e-05,0.0,
8685,As4Fe4Se4,mp-1101894,FeAsSe,"['Fe', 'As', 'Se']",12.0,-70.35530326,0.00037177728352855155,0.0,
7327,B4Fe4,mp-1080525,FeB,"['Fe', 'B']",8.0,-63.63402686,1.3667493896640792e-05,0.0,
7946,B8Fe4,mp-1101938,FeB2,"['Fe', 'B']",12.0,-90.86778151,0.0,0.0,
23814,B2Fe2O6,mp-19097,FeBO3,"['Fe', 'B', 'O']",10.0,-74.05621531,0.0,0.0,
17394,B4Fe4O16Pb4,mp-20028,FeBPbO4,"['Fe', 'B', 'Pb', 'O']",28.0,-193.00275982,0.0008804083886726488,0.0,
7093,B4Fe4W4,mp-1103093,FeBW,"['Fe', 'B', 'W']",12.0,-116.7913688,0.002687268986003133,0.0,
28481,Bi4Fe4O36Se12,mp-1197024,FeBi(SeO3)3,"['Fe', 'Bi', 'Se', 'O']",56.0,-316.28225068,0.0009223947349319417,0.0,
15930,Bi4Cl6Fe2O14Se4,mp-1192577,FeBi2Se2Cl3O7,"['Fe', 'Bi', 'Se', 'Cl', 'O']",30.0,-153.42128231,0.0022564238338782516,0.0,
26613,Br2Fe1,mp-22880,FeBr2,"['Fe', 'Br']",3.0,-13.06591682,0.05411912172688815,0.0,
24811,Br6Fe2,mp-23232,FeBr3,"['Fe', 'Br']",8.0,-29.66665925,0.1059588916625982,0.0,
11777,C2Fe2O6,mp-18969,FeCO3,"['Fe', 'C', 'O']",10.0,-74.34919626,-7.105427357601002e-15,-7.105427357601002e-15,
17737,Cl2Fe1,mp-23229,FeCl2,"['Fe', 'Cl']",3.0,-14.31647303,1.610059570378297e-05,0.0,
8632,Cl18Fe6,mp-583463,FeCl3,"['Fe', 'Cl']",24.0,-100.9942397,0.017511453641763985,0.0,
11381,Cl4Fe1,mp-1225059,FeCl4,"['Fe', 'Cl']",5.0,-18.39618703,0.03489576965917962,0.0,
17783,Cl4Fe4O4,mp-540828,FeClO,"['Fe', 'Cl', 'O']",12.0,-64.75354832,0.0,0.0,
14234,Co1Fe1,mp-2090,FeCo,"['Fe', 'Co']",2.0,-15.71418618,0.0,0.0,
28213,Co2Fe1Ge1,mp-22300,FeCo2Ge,"['Fe', 'Co', 'Ge']",4.0,-27.9943822,0.0,0.0,
14440,Co4Fe4P4,mp-1095664,FeCoP,"['Fe', 'Co', 'P']",12.0,-90.57246787,0.000610028167318255,0.0,
15869,Cu2Fe2O4,mp-510281,FeCuO2,"['Fe', 'Cu', 'O']",8.0,-48.23919279,0.0,0.0,
17553,F4Fe2,mp-556911,FeF2,"['Fe', 'F']",6.0,-33.77889999,0.0,0.0,
8252,F18Fe6,mp-1096967,FeF3,"['Fe', 'F']",24.0,-126.70229663,0.0,0.0,
31471,F12Fe2,mp-1213622,FeF6,"['Fe', 'F']",14.0,-52.2089569,0.0026256393450054816,0.0,
20517,Fe3Ge3,mp-22478,FeGe,"['Fe', 'Ge']",6.0,-40.01202038,0.0,0.0,
26213,Fe2Ge4,mp-21117,FeGe2,"['Fe', 'Ge']",6.0,-35.81218686,0.0,0.0,
5928,Fe1H1,mp-1009077,FeH,"['Fe', 'H']",2.0,-11.82069785,0.013414777392577903,0.0,
24273,Cl20Fe4H40N8O4,mp-849222,FeH10N2Cl5O,"['Fe', 'H', 'N', 'Cl', 'O']",76.0,-337.87510642,0.007838979505339516,-6.838973831690964e-14,
22704,F20Fe4H40N8O4,mp-24619,FeH10N2OF5,"['Fe', 'H', 'N', 'O', 'F']",76.0,-380.24214861,0.00021606218338821037,0.0,
31165,Fe4H8O20S4,mp-643564,FeH2SO5,"['Fe', 'H', 'S', 'O']",36.0,-214.35722424,0.00011759787977450031,0.0,
10490,Cl2Fe1H4O2,mp-23880,FeH4(ClO)2,"['Fe', 'H', 'Cl', 'O']",9.0,-42.53411537,0.00028496146592882354,0.0,
17378,Br4Fe2H16O8,mp-24537,FeH8(BrO2)2,"['Fe', 'H', 'Br', 'O']",30.0,-141.89468465,0.0045791690966803245,0.0,
26482,Fe4H32N12O52,mp-1199758,FeH8N3O13,"['Fe', 'H', 'N', 'O']",100.0,-565.86912277,0.0006238162453122698,0.0,
11529,Fe4H4O8,mp-605437,FeHO2,"['Fe', 'H', 'O']",16.0,-97.31035077,0.0,0.0,
30274,Fe1I2,mp-571122,FeI2,"['Fe', 'I']",3.0,-11.81964662,0.03227656188123973,0.0,
26913,Fe1Ir3,mp-1184336,FeIr3,"['Fe', 'Ir']",4.0,-35.27766027,0.0036993276416019683,0.0,
26280,Fe4Mo12N4Pt4,mp-1225033,FeMo3PtN,"['Fe', 'Mo', 'Pt', 'N']",24.0,-228.5840822,0.003007001839192114,0.0,
5721,Fe4Mo4P4,mp-1102843,FeMoP,"['Fe', 'Mo', 'P']",12.0,-106.00958479,0.00013141784993386807,0.0,
1878,Fe1N1,mp-6988,FeN,"['Fe', 'N']",2.0,-17.07478981,0.0,0.0,
6233,Fe1Ni1,mp-2213,FeNi,"['Fe', 'Ni']",2.0,-14.3846046,0.001496242022705374,0.0,
19155,B4Fe4Ni8O20,mp-21522,FeNi2BO5,"['Fe', 'Ni', 'B', 'O']",36.0,-228.76528043,0.0001717757074652937,0.0,
3374,Fe1Ni3,mp-1418,FeNi3,"['Fe', 'Ni']",4.0,-26.16946867,2.317902709680908e-05,0.0,
12722,Ag4F14Fe2Ni2,mp-1212687,FeNiAg2F7,"['Fe', 'Ni', 'Ag', 'F']",22.0,-95.47464812,0.00019609541992160473,0.0,
28270,Fe2Ni2P12,mp-1224986,FeNiP6,"['Fe', 'Ni', 'P']",16.0,-99.98513973,0.0,0.0,
28626,Fe1Ni1Pt2,mp-13463,FeNiPt2,"['Fe', 'Ni', 'Pt']",4.0,-27.22772387,7.110006591837248e-05,0.0,
10515,Fe1Ni1Pt6,mp-1224947,FeNiPt6,"['Fe', 'Ni', 'Pt']",8.0,-51.7666195,0.005081159810385039,0.0,
4859,Fe4P4,mp-1005,FeP,"['Fe', 'P']",8.0,-60.32067852,6.821158081038448e-05,0.0,
9453,Fe2P4,mp-20027,FeP2,"['Fe', 'P']",6.0,-41.81379362,0.0,0.0,