,Composition,MaterialId,Reduced Formula,Elements,NSites,Corrected Energy,Decomposition Energy Per Atom All,Decomposition Energy Per Atom MP,Directory
31179,Cl32Ga8Hg16Sb8,mp-571190,GaHg2SbCl4,"['Ga', 'Hg', 'Sb', 'Cl']",64.0,-169.45144128,1.3523167114115608e-05,0.0,
19305,As2Cl8Ga2Hg6S2,mp-1225472,GaHg3AsSCl4,"['Ga', 'Hg', 'As', 'S', 'Cl']",20.0,-53.64778066,3.3377583495752816e-05,0.0,
10368,Cl8Ga2Hg2,mp-1103091,GaHgCl4,"['Ga', 'Hg', 'Cl']",12.0,-32.78550703,0.0004557664005537809,0.0,
19841,Ga12I24,mp-570738,GaI2,"['Ga', 'I']",36.0,-90.01578016,0.0040284794422742465,0.0,
19156,Ga4I12,mp-30954,GaI3,"['Ga', 'I']",16.0,-38.39859503,6.387819213582446e-06,0.0,
18040,Ga1Ir1,mp-11388,GaIr,"['Ga', 'Ir']",2.0,-12.66447909,0.0,0.0,
29995,Ga2Mo6,mp-2377,GaMo3,"['Ga', 'Mo']",8.0,-72.46971579,8.975957031864823e-06,0.0,
830,Ga2N2,mp-804,GaN,"['Ga', 'N']",4.0,-24.63444937,0.0,0.0,
7516,Ga1N5O14,mp-541950,GaN5O14,"['Ga', 'N', 'O']",20.0,-122.06214418,0.001245934310546204,0.0,
19664,Ga3Ni30P9,mp-1212709,GaNi10P3,"['Ga', 'Ni', 'P']",42.0,-250.55293795,0.0,0.0,
27494,B4Ga4Ni8O20,mp-505076,GaNi2BO5,"['Ga', 'Ni', 'B', 'O']",36.0,-222.15881306,2.9491551649662995e-05,0.0,
21948,Ga2Ge6Ni4,mp-1224885,GaNi2Ge3,"['Ga', 'Ni', 'Ge']",12.0,-59.66115864,0.0,0.0,
14298,Ga1Ni2Pt1,mp-1224791,GaNi2Pt,"['Ga', 'Ni', 'Pt']",4.0,-22.16916952,0.0003640416613768238,0.0,
10,Ga1Ni3,mp-815,GaNi3,"['Ga', 'Ni']",4.0,-21.53213199,0.0007832447180176061,0.0,
26440,Ga1Ni1Rh2,mp-866037,GaNiRh2,"['Ga', 'Ni', 'Rh']",4.0,-24.9023846,0.022735395049843454,0.0,
10906,Ga1P1,mp-2490,GaP,"['Ga', 'P']",2.0,-9.26109103,0.0,0.0,
18754,Ga8I72P16,mp-29817,GaP2I9,"['Ga', 'P', 'I']",96.0,-243.03140723,0.0034143650968374573,0.0,
16346,Ga4H8O40P12,mp-24465,GaP3(HO5)2,"['Ga', 'P', 'H', 'O']",64.0,-424.90114792,6.0341337889902036e-05,0.0,
28733,C6Cl6Ga2H18O2P2,mp-1198682,GaPH9C3Cl3O,"['Ga', 'P', 'H', 'C', 'Cl', 'O']",36.0,-176.41283294,0.0008046859928390049,0.0,
25461,Ga1O4P1,mp-677335,GaPO4,"['Ga', 'P', 'O']",6.0,-41.03885982,0.0003919088655468528,0.0,
8335,Ga1P1Pd5,mp-1025301,GaPPd5,"['Ga', 'P', 'Pd']",7.0,-38.3081535,4.440892098500626e-15,0.0,
26599,Ga1P1Pt5,mp-1025270,GaPPt5,"['Ga', 'P', 'Pt']",7.0,-41.924972,0.0014082445591521164,0.0,
9941,Ga4P4S16,mp-30979,GaPS4,"['Ga', 'P', 'S']",24.0,-109.92664172,8.162195719751963e-05,4.440892098500626e-15,
23477,Ga4Pd4,mp-1078526,GaPd,"['Ga', 'Pd']",8.0,-38.13294005,0.0,0.0,
18661,Ga4Pd8,mp-1869,GaPd2,"['Ga', 'Pd']",12.0,-61.29636569,0.0,0.0,
23220,Ga4Pt4,mp-1025551,GaPt,"['Ga', 'Pt']",8.0,-41.43682095,0.02345514721069364,0.0,
28886,Ga8Pt16,mp-2223,GaPt2,"['Ga', 'Pt']",24.0,-134.15601192,0.003585562903645645,0.0,
15275,Ga2Pt6,mp-862621,GaPt3,"['Ga', 'Pt']",8.0,-46.03629151,0.0003115646374514114,0.0,
17725,Cl24Ga4O8Re4,mp-561379,GaRe(Cl3O)2,"['Ga', 'Re', 'Cl', 'O']",40.0,-187.16757381,3.720504296911287e-05,0.0,
1157,Ga1Rh1,mp-2444,GaRh,"['Ga', 'Rh']",2.0,-11.752323,7.531738255295295e-08,0.0,
16896,Ga4S4,mp-2507,GaS,"['Ga', 'S']",8.0,-33.87213837,0.0,0.0,
8009,Ga1Sb1,mp-1156,GaSb,"['Ga', 'Sb']",2.0,-7.47064542,5.193523315405457e-05,0.0,
12500,Ga1O13Pb4Sb3,mp-1224914,GaSb3Pb4O13,"['Ga', 'Sb', 'Pb', 'O']",21.0,-124.51299016,4.843639136975497e-05,0.0,
21132,Cl24Ga4Sb4,mp-27735,GaSbCl6,"['Ga', 'Sb', 'Cl']",32.0,-104.98657367,3.66744818114384e-05,0.0,
31725,Ga1O4Sb1,mp-1224786,GaSbO4,"['Ga', 'Sb', 'O']",6.0,-36.5280328,0.0010856995117194401,0.0,
21291,Ga2Se2,mp-11342,GaSe,"['Ga', 'Se']",4.0,-15.41359628,0.0,0.0,
17433,Cl4Ga4Se4,mp-1120728,GaSeCl,"['Ga', 'Se', 'Cl']",12.0,-43.73457839,0.0020825533968098497,0.0,
11040,Ga1Ni6Si1,mp-1224834,GaSiNi6,"['Ga', 'Si', 'Ni']",8.0,-46.13093829,0.00014939923583945358,0.0,
17621,Ga1Ru2Si1,mp-865615,GaSiRu2,"['Ga', 'Si', 'Ru']",4.0,-28.9804773,0.02970958582763661,0.0,
10576,Ga1Tc1,mp-867841,GaTc,"['Ga', 'Tc']",2.0,-13.57497241,0.14058577070800737,0.0,
22635,Ga4Te4,mp-10009,GaTe,"['Ga', 'Te']",8.0,-27.59832664,0.004600456214193027,0.0,
29664,Cl4Ga4Te4,mp-27449,GaTeCl,"['Ga', 'Te', 'Cl']",12.0,-40.71536633,-6.661338147750939e-15,-6.661338147750939e-15,
647,Ga2I14Te2,mp-29541,GaTeI7,"['Ga', 'Te', 'I']",18.0,-39.20351278,6.23664431427251e-05,0.0,
23061,F4Ga4O12Te4,mp-558984,GaTeO3F,"['Ga', 'Te', 'O', 'F']",24.0,-131.13585448,0.0003028416943351431,0.0,
8199,Gd4,e5df4256392ff5eea8f753199b7ad7cb,Gd,['Gd'],4.0,-56.385860443115234,0.0005521774291992188,0.0,
27820,Al8Cu4Gd1,mp-973553,Gd(Al2Cu)4,"['Gd', 'Al', 'Cu']",13.0,-64.51159926,0.005021116868990205,0.0,
12283,Al8Fe4Gd1,mp-1104719,Gd(Al2Fe)4,"['Gd', 'Al', 'Fe']",13.0,-83.25111606,0.0013555179206727885,0.0,
13251,Al18Gd2Ni6,mp-568693,Gd(Al3Ni)3,"['Gd', 'Al', 'Ni']",26.0,-143.88663591,0.0,0.0,
19614,Al20Gd2Ru4,mp-1192913,Gd(Al5Ru)2,"['Gd', 'Al', 'Ru']",26.0,-153.74179884,0.0,-5.329070518200751e-15,
5190,Al6C6Gd2,mp-1104806,Gd(AlC)3,"['Gd', 'Al', 'C']",14.0,-109.65565005,0.01663807310058374,1.4210854715202004e-14,
27152,Al6Cu6Gd1,mp-1225036,Gd(AlCu)6,"['Gd', 'Al', 'Cu']",13.0,-65.76275882,0.0,0.0,
14464,Al6Fe6Gd1,mp-1224928,Gd(AlFe)6,"['Gd', 'Al', 'Fe']",13.0,-92.32053555,0.0016665909930946299,0.0,
13962,Al2Gd1Si2,mp-8651,Gd(AlSi)2,"['Gd', 'Al', 'Si']",5.0,-34.38046376,0.012101340178346298,0.0,
16594,B4C4Gd2,mp-1080176,Gd(BC)2,"['Gd', 'B', 'C']",10.0,-96.19938078,0.004789552615234172,0.0,
1236,B8Gd2Ir8,mp-1106191,Gd(BIr)4,"['Gd', 'B', 'Ir']",18.0,-162.51242457,0.0019919021440966134,0.0,
2772,B48Gd16O96,mp-1204314,Gd(BO2)3,"['Gd', 'B', 'O']",160.0,-1462.94114597,0.0,0.0,
29009,B4Gd2Os4,mp-1079837,Gd(BOs)2,"['Gd', 'B', 'Os']",10.0,-104.43847762,0.0011816874628891583,0.0,
28198,B4Gd2Ru4,mp-1095164,Gd(BRu)2,"['Gd', 'B', 'Ru']",10.0,-97.34211385,0.00470844532226522,0.0,
14785,Cl6Gd2O24,mp-1212754,Gd(ClO4)3,"['Gd', 'Cl', 'O']",32.0,-172.39650175,0.0045467821655273966,0.0,
31157,B6Co12Gd1,mp-645286,Gd(Co2B)6,"['Gd', 'Co', 'B']",19.0,-146.07618526,0.00044019422080587844,0.0,
24351,B2Co2Gd1,mp-610530,Gd(CoB)2,"['Gd', 'Co', 'B']",5.0,-44.34487963,0.005888270777342441,0.0,
12593,B8Co8Gd2,mp-1181496,Gd(CoB)4,"['Gd', 'Co', 'B']",18.0,-147.08473247,0.0030720798459196175,0.0,
11267,Co2Gd1Si2,mp-542985,Gd(CoSi)2,"['Gd', 'Co', 'Si']",5.0,-43.19250974,0.0056794545878915415,0.0,
13435,Cu4Gd2O8,mp-20707,Gd(CuO2)2,"['Gd', 'Cu', 'O']",14.0,-107.27237626,0.004190383284068844,0.0,
21203,Cu6Gd2S6,mp-1226384,Gd(CuS)3,"['Gd', 'Cu', 'S']",14.0,-89.60760107,0.005341239140630449,0.0,
29266,Cu2Gd1Si2,mp-20677,Gd(CuSi)2,"['Gd', 'Cu', 'Si']",5.0,-36.11547025,0.0,0.0,
15737,Fe4Gd1P12,mp-1212761,Gd(FeP3)4,"['Gd', 'Fe', 'P']",17.0,-123.11182074,0.0,0.0,
20035,Fe2Gd1Si2,mp-542986,Gd(FeSi)2,"['Gd', 'Fe', 'Si']",5.0,-45.1784799,0.004492960429688608,0.0,
14240,Gd1Ge4Rh6,mp-1102792,Gd(Ge2Rh3)2,"['Gd', 'Ge', 'Rh']",11.0,-84.93365066,0.0,0.0,
8651,Gd1Ge2Pd2,mp-22181,Gd(GePd)2,"['Gd', 'Ge', 'Pd']",5.0,-37.72895077,0.0,0.0,
10360,Gd1Ge2Rh2,mp-22187,Gd(GeRh)2,"['Gd', 'Ge', 'Rh']",5.0,-42.50260983,0.0,0.0,
13195,Gd4I12O36,mp-510661,Gd(IO3)3,"['Gd', 'I', 'O']",52.0,-304.65343399,0.0033904436643510394,0.0,
9839,Gd2Lu6S12,mp-22563,Gd(LuS2)3,"['Gd', 'Lu', 'S']",20.0,-146.27544757,0.25896528019140597,0.0,
26282,Gd1Ge2Mn2,mp-20837,Gd(MnGe)2,"['Gd', 'Mn', 'Ge']",5.0,-44.01954989,0.0,0.0,
18476,Gd4N12O36,mp-1203247,Gd(NO3)3,"['Gd', 'N', 'O']",52.0,-384.96147114,0.002092999786658112,0.0,
28895,B12Gd2Ni24,mp-1204079,Gd(Ni2B)6,"['Gd', 'Ni', 'B']",38.0,-261.95943993,0.0009244195024695756,-1.2434497875801753e-14,
4779,As2Gd1Ni2,mp-582433,Gd(NiAs)2,"['Gd', 'Ni', 'As']",5.0,-38.86787748,0.003492069917969687,0.0,
22206,Gd1Ni2P2,mp-21473,Gd(NiP)2,"['Gd', 'Ni', 'P']",5.0,-41.53363776,0.004484606203124741,0.0,
12400,Gd8O72P24,mp-579125,Gd(PO3)3,"['Gd', 'P', 'O']",104.0,-860.67590035,0.004289992503004214,0.0,
30375,Gd1P2Ru2,mp-672215,Gd(PRu)2,"['Gd', 'P', 'Ru']",5.0,-48.6240408,0.006234320468752941,3.552713678800501e-15,
13145,Gd2O8Pd4,mp-20102,Gd(PdO2)2,"['Gd', 'Pd', 'O']",14.0,-110.47268216,0.025323536422991566,0.0,
11191,Gd2Re8Si4,mp-1105253,Gd(Re2Si)2,"['Gd', 'Re', 'Si']",14.0,-155.9363338,0.002393070856584245,0.0,
2588,Gd8O96S24,mp-727793,Gd(SO4)3,"['Gd', 'S', 'O']",128.0,-864.00938852,0.05012960536717692,0.0,
22857,Ag2Gd1Si2,mp-21287,Gd(SiAg)2,"['Gd', 'Si', 'Ag']",5.0,-32.64828914,0.002700826403685852,0.0,
27647,Au2Gd1Si2,mp-22615,Gd(SiAu)2,"['Gd', 'Si', 'Au']",5.0,-34.39152909,0.0018848008964855723,0.0,
27556,Gd1Ni2Si2,mp-20956,Gd(SiNi)2,"['Gd', 'Si', 'Ni']",5.0,-40.68443332,0.006541717347657183,0.0,
31718,Gd1Os2Si2,mp-21408,Gd(SiOs)2,"['Gd', 'Si', 'Os']",5.0,-50.95646578,0.006183040289062802,0.0,
15067,Gd1Pd2Si2,mp-19753,Gd(SiPd)2,"['Gd', 'Si', 'Pd']",5.0,-39.99780528,0.032169174712890936,0.0,
9217,Gd2Pt4Si4,mp-637220,Gd(SiPt)2,"['Gd', 'Si', 'Pt']",10.0,-85.09399237,0.003572259582030668,0.0,
29295,Gd1Rh2Si2,mp-21240,Gd(SiRh)2,"['Gd', 'Si', 'Rh']",5.0,-45.19416477,0.007112785746093309,0.0,
12846,Gd1Ru2Si2,mp-569302,Gd(SiRu)2,"['Gd', 'Si', 'Ru']",5.0,-48.00224949,0.007435423044922729,0.0,
31102,Gd1Ru4Sn6,mp-21869,Gd(Sn3Ru2)2,"['Gd', 'Sn', 'Ru']",11.0,-78.85335028,0.001271800717328908,6.217248937900877e-15,
627,Gd20S38,mp-646008,Gd10S19,"['Gd', 'S']",58.0,-543.25587707,0.006738001419718032,0.0,
15120,Gd11In9Ni4,mp-1192974,Gd11In9Ni4,"['Gd', 'In', 'Ni']",24.0,-215.03962298,0.0,-3.552713678800501e-15,
7038,Co6Gd12Pb1,mp-1213266,Gd12Co6Pb,"['Gd', 'Co', 'Pb']",19.0,-220.00276991,0.011511930106907542,0.0,
29548,Al18Gd4Ir6,mp-569472,Gd2(Al3Ir)3,"['Gd', 'Al', 'Ir']",28.0,-200.95815745,0.002888921114676535,-1.7763568394002505e-15,
13703,Al18Gd4Rh6,mp-1213364,Gd2(Al3Rh)3,"['Gd', 'Al', 'Rh']",28.0,-191.07361444,0.003547452686942343,0.0,
6393,B56Fe56Gd16,mp-680207,Gd2(FeB)7,"['Gd', 'Fe', 'B']",128.0,-1134.8329411,0.0,0.0,
11503,Co6Ga18Gd4,mp-866782,Gd2(Ga3Co)3,"['Gd', 'Ga', 'Co']",28.0,-167.03694955,0.002707058656528538,0.0,
27961,Ga18Gd4Ir6,mp-1213497,Gd2(Ga3Ir)3,"['Gd', 'Ga', 'Ir']",28.0,-182.79717414,0.0016983008035680314,0.0,
3818,Gd8Mo12O48,mp-3572,Gd2(MoO4)3,"['Gd', 'Mo', 'O']",68.0,-588.09863382,0.003518841456800814,0.0,
21503,Ag1Gd2Ir1,mp-1184371,Gd2AgIr,"['Gd', 'Ag', 'Ir']",4.0,-42.07207158,0.01852709553955023,0.0,
12793,Ag1Gd2Ru1,mp-1184415,Gd2AgRu,"['Gd', 'Ag', 'Ru']",4.0,-41.49277597,0.006795631523438317,0.0,
28893,Al6Au1Gd2Si4,mp-638442,Gd2Al6Si4Au,"['Gd', 'Al', 'Si', 'Au']",13.0,-80.81591167,0.0,0.0,
22761,Al6Gd2Pt1Si4,mp-637030,Gd2Al6Si4Pt,"['Gd', 'Al', 'Si', 'Pt']",13.0,-85.25860186,0.004911884604868355,0.0,
11039,Al1Co2Gd2,mp-637222,Gd2AlCo2,"['Gd', 'Al', 'Co']",5.0,-47.91697623,0.009337755708983764,0.0,
7623,Al1Gd2Ni2,mp-1071506,Gd2AlNi2,"['Gd', 'Al', 'Ni']",5.0,-46.03671292,0.007752936019532086,0.0,
27423,Au20F84Gd8,mp-557726,Gd2Au5F21,"['Gd', 'Au', 'F']",112.0,-547.11578458,0.009603071725725165,0.0,
24380,B3C2Gd2,mp-28702,Gd2B3C2,"['Gd', 'B', 'C']",7.0,-69.98751749,0.006976653563057766,0.0,
30399,B20Gd8,mp-28366,Gd2B5,"['Gd', 'B']",28.0,-262.56363944,0.008657905393416598,0.0,
10938,B24Gd8Os4,mp-1202304,Gd2B6Os,"['Gd', 'B', 'Os']",36.0,-339.22893697,0.015494616501735337,0.0,
19707,Be4Gd4Ge2O14,mp-650715,Gd2Be2GeO7,"['Gd', 'Be', 'Ge', 'O']",24.0,-218.19744858,0.0,0.0,
18179,Be4Gd4O14Si2,mp-1212449,Gd2Be2SiO7,"['Gd', 'Be', 'Si', 'O']",24.0,-226.82526207,0.005088410047200398,0.0,
28017,Bi1Gd2O2,mp-1070662,Gd2BiO2,"['Gd', 'Bi', 'O']",5.0,-55.1401912,0.0115454575097651,0.0,
12149,Br12Gd8N4,mp-505435,Gd2Br3N,"['Gd', 'Br', 'N']",24.0,-210.43972214,0.35775038263509273,0.0,
20902,C1Gd2,mp-1224869,Gd2C,"['Gd', 'C']",3.0,-38.14784353,0.014290753264972977,0.0,
31019,C1Gd2N2O2,mp-1025163,Gd2C(NO)2,"['Gd', 'C', 'N', 'O']",7.0,-78.84668448,0.00853997349051383,0.0,
6994,C12Gd8,mp-1189998,Gd2C3,"['Gd', 'C']",20.0,-227.94420282,0.029957369986330917,0.0,
5253,Br2C2Gd4,mp-28522,Gd2CBr,"['Gd', 'C', 'Br']",8.0,-85.68135441,0.011697405598145139,0.0,
7914,C1Cl1Gd2,mp-28638,Gd2CCl,"['Gd', 'C', 'Cl']",4.0,-43.55120473,0.009714671381836126,0.0,
23985,C1F2Gd2,mp-8301,Gd2CF2,"['Gd', 'C', 'F']",5.0,-52.9054841,0.009708190986328802,0.0,
21250,C2Gd4I2,mp-28724,Gd2CI,"['Gd', 'C', 'I']",8.0,-83.87599878,0.010518562229004047,0.0,
6592,Cd1Gd2In1,mp-1184514,Gd2CdIn,"['Gd', 'Cd', 'In']",4.0,-33.57567279,0.01041205610107454,0.0,
5922,Cd2Gd4Pd4,mp-603326,Gd2CdPd2,"['Gd', 'Cd', 'Pd']",10.0,-86.69728077,0.0,0.0,
28921,Cl6Gd4,mp-1078829,Gd2Cl3,"['Gd', 'Cl']",10.0,-85.7708123,0.006135438701171836,0.0,
14790,Co34Gd4,mp-1201816,Gd2Co17,"['Gd', 'Co']",38.0,-301.39827503,0.0038714416104719263,0.0,
9790,Co4Gd4I2,mp-1206201,Gd2Co2I,"['Gd', 'Co', 'I']",10.0,-93.90734476,0.006938882154297943,0.0,
19466,Co1Gd2O14S2Te2,mp-1190470,Gd2CoTe2(SO7)2,"['Gd', 'Co', 'Te', 'S', 'O']",21.0,-155.91372834,0.0032913088188237793,0.0,
17656,C3Cr2Gd2,mp-1078248,Gd2Cr2C3,"['Gd', 'Cr', 'C']",7.0,-77.00666803,0.007698067770647299,0.0,
2385,Cu2Gd4O24Se8,mp-17465,Gd2Cu(SeO3)4,"['Gd', 'Cu', 'Se', 'O']",38.0,-274.85498617,0.0,0.0,
3937,Cu2Gd4O8,mp-4860,Gd2CuO4,"['Gd', 'Cu', 'O']",14.0,-141.4180905,0.003280002040311203,0.0,
24081,Cu1Gd2Ru1,mp-1184422,Gd2CuRu,"['Gd', 'Cu', 'Ru']",4.0,-42.67969737,0.006564533842773557,0.0,
191,Cu1Gd2O14S2Te2,mp-1190515,Gd2CuTe2(SO7)2,"['Gd', 'Cu', 'Te', 'S', 'O']",21.0,-154.05981885,0.0005772645833337364,0.0,
557,Fe12Gd2P7,mp-1191833,Gd2Fe12P7,"['Gd', 'Fe', 'P']",21.0,-182.40771347,0.001860184464286263,0.0,
17373,B4Fe56Gd8,mp-1198327,Gd2Fe14B,"['Gd', 'Fe', 'B']",68.0,-620.86511604,0.0,0.0,
21006,Fe4Gd4I2,mp-567844,Gd2Fe2I,"['Gd', 'Fe', 'I']",10.0,-98.49605167,0.007604934318360179,0.0,
23101,B8Gd8Ge4O32,mp-1196136,Gd2Ge(BO4)2,"['Gd', 'Ge', 'B', 'O']",52.0,-485.99853583,0.0003488083974385603,0.0,
15663,Gd12Ge12O42,mp-581229,Gd2Ge2O7,"['Gd', 'Ge', 'O']",66.0,-601.03108318,8.881784197001252e-15,8.881784197001252e-15,
17417,Gd8Ge4O20,mp-561584,Gd2GeO5,"['Gd', 'Ge', 'O']",32.0,-321.76737054,0.005280954499520263,8.881784197001252e-15,
20975,Gd4Hf4O14,mp-1190245,Gd2Hf2O7,"['Gd', 'Hf', 'O']",22.0,-243.77662705,0.0,1.0658141036401503e-14,
12116,Gd8Hf4S20,mp-1195809,Gd2HfS5,"['Gd', 'Hf', 'S']",32.0,-295.73828325,0.009744505371093837,0.0,
7403,Gd4Hg2O8,mp-756040,Gd2HgO4,"['Gd', 'Hg', 'O']",14.0,-132.76902589,0.00789671028459793,0.0,
23307,Ag1Gd2In1,mp-1224988,Gd2InAg,"['Gd', 'In', 'Ag']",4.0,-35.36738436,0.008426088649901686,0.0,
6890,Gd2In1Ni2,mp-1076993,Gd2InNi2,"['Gd', 'In', 'Ni']",5.0,-44.96033608,0.016522719302734856,0.0,
13260,Gd4In2Pd4,mp-20654,Gd2InPd2,"['Gd', 'In', 'Pd']",10.0,-91.04700493,0.006866432048829196,0.0,
22688,Au1Gd2Ir1,mp-1184354,Gd2IrAu,"['Gd', 'Ir', 'Au']",4.0,-43.40108376,0.04794568902832985,0.0,
12052,Gd2Ir1Pd1,mp-866029,Gd2IrPd,"['Gd', 'Ir', 'Pd']",4.0,-45.55772377,0.008286533391112627,0.0,
5787,Gd2Ir1Rh1,mp-865436,Gd2IrRh,"['Gd', 'Ir', 'Rh']",4.0,-47.51664597,0.012659097201336067,0.0,
23584,Gd4Mg2Ni4,mp-1205657,Gd2MgNi2,"['Gd', 'Mg', 'Ni']",10.0,-86.21052955,0.0,0.0,
15051,Gd4Ge8Mn2O24,mp-1225903,Gd2Mn(GeO3)4,"['Gd', 'Mn', 'Ge', 'O']",38.0,-310.66015364,1.5987211554602254e-14,0.0,
18446,C3Gd2Mn17,mp-1193010,Gd2Mn17C3,"['Gd', 'Mn', 'C']",22.0,-213.60186126,0.002601577190135984,0.0,
15864,Ga6Gd2Mn1,mp-636619,Gd2MnGa6,"['Gd', 'Mn', 'Ga']",9.0,-60.2426739,0.00705867053493936,0.0,
6083,Gd4Mn2Ni2O12,mp-1212655,Gd2MnNiO6,"['Gd', 'Mn', 'Ni', 'O']",20.0,-184.93077971,-7.105427357601002e-14,0.0,
7227,Gd4Mo2O24Se6,mp-582378,Gd2Mo(SeO4)3,"['Gd', 'Mo', 'Se', 'O']",36.0,-275.43519467,0.0031759347309030517,0.0,
26235,C3Gd2Mo2,mp-12039,Gd2Mo2C3,"['Gd', 'Mo', 'C']",7.0,-79.65272653,0.007722939910715709,0.0,
14256,Gd4Mo4O14,mp-642754,Gd2Mo2O7,"['Gd', 'Mo', 'O']",22.0,-209.8885478,0.12727298193335912,8.881784197001252e-15,
12612,Gd8Mo4O24,mp-582797,Gd2MoO6,"['Gd', 'Mo', 'O']",36.0,-358.5012009,0.0011989346896701392,0.0,
7124,Cl12Gd8N4,mp-28279,Gd2NCl3,"['Gd', 'N', 'Cl']",24.0,-218.8765816,0.008238548445627103,0.0,
20700,Gd4Nb4O60S14,mp-1201421,Gd2Nb2S7O30,"['Gd', 'Nb', 'S', 'O']",82.0,-595.25650057,0.0,0.0,
31014,Gd2Ni2Sn1,mp-1206945,Gd2Ni2Sn,"['Gd', 'Ni', 'Sn']",5.0,-46.62659023,0.01635065517187506,-1.7763568394002505e-15,
17483,Gd4Ni14,mp-669713,Gd2Ni7,"['Gd', 'Ni']",18.0,-143.88382354,0.0,0.0,
25775,B20Gd4Ni2,mp-1212642,Gd2NiB10,"['Gd', 'Ni', 'B']",26.0,-215.18826867,0.004339731329627838,-3.019806626980426e-14,
15530,Gd2Ir1Ni1,mp-1232425,Gd2NiIr,"['Gd', 'Ni', 'Ir']",4.0,-45.13304675,0.03662785794067425,0.0,
17732,Gd2Ni1Ru1,mp-1184370,Gd2NiRu,"['Gd', 'Ni', 'Ru']",4.0,-44.51876456,0.029209001716003158,0.0,
25960,Gd16O24,mp-504886,Gd2O3,"['Gd', 'O']",40.0,-483.29749164,0.014361579849609285,0.0,
4308,Gd4O26P8,mp-772787,Gd2P4O13,"['Gd', 'P', 'O']",38.0,-329.74584494,0.004743987238896352,0.0,
10664,Gd2Pd1Ru1,mp-866052,Gd2PdRu,"['Gd', 'Pd', 'Ru']",4.0,-44.92405717,0.013334233500977177,0.0,
29186,C1Gd2Re2Si2,mp-1025361,Gd2Re2Si2C,"['Gd', 'Re', 'Si', 'C']",7.0,-77.35758335,0.0072577984933026585,0.0,
18624,Gd8Re12Si20,mp-1198764,Gd2Re3Si5,"['Gd', 'Re', 'Si']",40.0,-394.16646514,0.004315056070316459,3.552713678800501e-15,
21038,C8Gd8Re4,mp-864979,Gd2ReC2,"['Gd', 'Re', 'C']",20.0,-243.56704095,0.00917465538085871,0.0,
29554,Gd8O20Re4,mp-15922,Gd2ReO5,"['Gd', 'Re', 'O']",32.0,-349.90380242,0.00854767065185591,0.0,
29071,Gd2Rh1Ru1,mp-1184387,Gd2RuRh,"['Gd', 'Ru', 'Rh']",4.0,-46.93471442,0.032738516887208746,0.0,
23008,Gd8S12,mp-608146,Gd2S3,"['Gd', 'S']",20.0,-203.83974661,0.00955434430468749,0.0,
21177,Cl8Gd4S2,mp-865182,Gd2SCl4,"['Gd', 'S', 'Cl']",14.0,-110.22242251,0.06505941160435214,0.0,
2422,Gd2O2S1,mp-4805,Gd2SO2,"['Gd', 'S', 'O']",5.0,-57.90473761,0.011881390353515542,0.0,
5115,Gd2O2Sb1,mp-1224680,Gd2SbO2,"['Gd', 'Sb', 'O']",5.0,-55.50617074,0.012312220408201568,0.0,
16968,Gd8Sc12Si16,mp-1213579,Gd2Sc3Si4,"['Gd', 'Sc', 'Si']",36.0,-304.3937683,0.004881497146270064,0.0,
9222,Gd8Se12,mp-1188175,Gd2Se3,"['Gd', 'Se']",20.0,-192.42805495,0.008158940732423403,0.0,
22835,Gd2O2Se1,mp-13973,Gd2SeO2,"['Gd', 'Se', 'O']",5.0,-56.87685094,0.01144558958788977,0.0,
21037,F12Gd12O6Se6,mp-1194754,Gd2SeOF2,"['Gd', 'Se', 'O', 'F']",36.0,-362.98980145,0.0073222877387149055,0.0,
13237,Gd8O28Si8,mp-13775,Gd2Si2O7,"['Gd', 'Si', 'O']",44.0,-435.02624454,0.005394516624646073,8.881784197001252e-15,
14260,C4Gd8N24Si16,mp-1205044,Gd2Si4CN6,"['Gd', 'Si', 'C', 'N']",52.0,-497.87173708,0.0007951985066103617,0.0,
18863,Gd8O20Si4,mp-542831,Gd2SiO5,"['Gd', 'Si', 'O']",32.0,-338.98390987,0.02489940774902344,1.0658141036401503e-14,
17003,Gd4O14Sn4,mp-17064,Gd2Sn2O7,"['Gd', 'Sn', 'O']",22.0,-197.89030517,0.005375055749290425,0.0,
1362,Gd8Te12,mp-1105966,Gd2Te3,"['Gd', 'Te']",20.0,-179.09893108,0.007785147660158032,0.0,
22695,Gd4O22Te8,mp-542515,Gd2Te4O11,"['Gd', 'Te', 'O']",34.0,-252.70294926,0.0036290845519451054,-1.4210854715202004e-14,
30509,Gd2O2Te1,mp-16035,Gd2TeO2,"['Gd', 'Te', 'O']",5.0,-55.8346722,0.012273457949218525,0.0,
3062,Gd8O24Te4,mp-17583,Gd2TeO6,"['Gd', 'Te', 'O']",36.0,-334.45959053,0.006603964498715698,0.0,
19318,Gd8O20Ti4,mp-557626,Gd2TiO5,"['Gd', 'Ti', 'O']",32.0,-351.91820978,0.007618696145039294,1.9539925233402755e-14,
13477,Gd4Tl2,mp-579628,Gd2Tl,"['Gd', 'Tl']",6.0,-62.88937311,0.0099215033544926,0.0,
2084,Ag1Gd2Tl1,mp-1184366,Gd2TlAg,"['Gd', 'Tl', 'Ag']",4.0,-34.75846249,0.0,0.0,
3231,Gd8S20U4,mp-1202826,Gd2US5,"['Gd', 'U', 'S']",32.0,-298.79437527,0.0052545844580080825,0.0,
7915,Gd8O24W4,mp-565757,Gd2WO6,"['Gd', 'W', 'O']",36.0,-366.30044863,0.0067508098111961345,0.0,
24379,Gd2Zn17,mp-542437,Gd2Zn17,"['Gd', 'Zn']",19.0,-54.33437569,0.0,0.0,
29829,Ag1Gd2Zn1,mp-1224733,Gd2ZnAg,"['Gd', 'Zn', 'Ag']",4.0,-33.61187391,0.007696080910644554,0.0,
12629,Ga1Gd2Zn1,mp-1184388,Gd2ZnGa,"['Gd', 'Zn', 'Ga']",4.0,-34.43648003,0.012894991889648821,0.0,
14567,Gd2In1Zn1,mp-1184470,Gd2ZnIn,"['Gd', 'Zn', 'In']",4.0,-33.86948265,0.00825914401855421,0.0,
8742,Gd2Ru1Zn1,mp-866217,Gd2ZnRu,"['Gd', 'Zn', 'Ru']",4.0,-40.00437906,0.05912913229817818,0.0,
25168,Gd2O14S2Te2Zn1,mp-1190458,Gd2ZnTe2(SO7)2,"['Gd', 'Zn', 'Te', 'S', 'O']",21.0,-153.17627893,0.0,0.0,
24739,Gd8S20Zr4,mp-1200036,Gd2ZrS5,"['Gd', 'Zr', 'S']",32.0,-289.82621523,0.005970477431640475,3.552713678800501e-15,
30433,Al4Gd6Ni12,mp-580327,Gd3(AlNi3)2,"['Gd', 'Al', 'Ni']",22.0,-180.47975834,0.010698878499649567,3.552713678800501e-15,
1841,Cu4Gd3Ge4,mp-621619,Gd3(CuGe)4,"['Gd', 'Cu', 'Ge']",11.0,-83.94224743,0.0,0.0,