,Composition,MaterialId,Reduced Formula,Elements,NSites,Corrected Energy,Decomposition Energy Per Atom All,Decomposition Energy Per Atom MP,Directory
25828,Ba1H2O14P4Si1,mp-722278,BaSiP4(HO7)2,"['Ba', 'Si', 'P', 'H', 'O']",22.0,-154.3120797,5.499876598058506e-05,0.0,
17233,Ba4Pd4Si4,mp-1102609,BaSiPd,"['Ba', 'Si', 'Pd']",12.0,-58.84230825,0.0017569357910147687,0.0,
5180,Ba4Pt4Si4,mp-1101912,BaSiPt,"['Ba', 'Si', 'Pt']",12.0,-65.04766749,0.0026248771354175915,0.0,
22272,Ba1Co1O5Sm2,mp-19248,BaSm2CoO5,"['Ba', 'Sm', 'Co', 'O']",9.0,-65.84700485,0.0,0.0,
6653,Ba2O10Pd2Sm4,mp-8515,BaSm2PdO5,"['Ba', 'Sm', 'Pd', 'O']",18.0,-129.85201167,0.0013022023920363779,0.0,
23203,Ba4O28Sc8Sm8,mp-1200892,BaSm2Sc2O7,"['Ba', 'Sm', 'Sc', 'O']",48.0,-396.69283462,0.0,0.0,
892,Ba2C4F2O12Sm2,mp-15073,BaSmC2O6F,"['Ba', 'Sm', 'C', 'O', 'F']",22.0,-168.16423184,-1.4210854715202004e-14,0.0,
25899,Ba1Cu1Fe1O5Sm1,mp-1214324,BaSmFeCuO5,"['Ba', 'Sm', 'Fe', 'Cu', 'O']",9.0,-60.33071103,-5.240252676230739e-14,0.0,
21391,Ba2Sn2,mp-872,BaSn,"['Ba', 'Sn']",4.0,-14.66766905,0.000241102749633626,0.0,
12797,Ba4H24O24Sn4,mp-1195130,BaSn(HO)6,"['Ba', 'Sn', 'H', 'O']",56.0,-306.27888596,0.000658678797434753,0.0,
25404,Ba1O8P2Sn1,mp-1102308,BaSn(PO4)2,"['Ba', 'Sn', 'P', 'O']",12.0,-84.80707182,2.5285345051528907e-05,0.0,
5585,Ba1Sn2,mp-567510,BaSn2,"['Ba', 'Sn']",3.0,-11.69102235,0.0,0.0,
14189,Ba2H4O8Sn4,mp-696946,BaSn2(HO2)2,"['Ba', 'Sn', 'H', 'O']",18.0,-101.85530254,0.0011596991124029898,0.0,
22515,Ba6S18Sn12,mp-27802,BaSn2S3,"['Ba', 'Sn', 'S']",36.0,-170.39317083,-4.440892098500626e-15,-4.440892098500626e-15,
4550,Ba2Sn6,mp-7759,BaSn3,"['Ba', 'Sn']",8.0,-31.44075631,0.0,0.0,
2622,Au1Ba1Sn3,mp-1068048,BaSn3Au,"['Ba', 'Sn', 'Au']",5.0,-19.73440308,0.01736842269628891,0.0,
11774,Ba1Pd1Sn3,mp-11269,BaSn3Pd,"['Ba', 'Sn', 'Pd']",5.0,-22.36204624,0.0,0.0,
6613,Ba1Pt1Sn3,mp-30433,BaSn3Pt,"['Ba', 'Sn', 'Pt']",5.0,-23.42474792,0.0,0.0,
17314,Ba2F8Sn2,mp-1103397,BaSnF4,"['Ba', 'Sn', 'F']",12.0,-64.00888113,0.001173541087238661,0.0,
9410,Ba1F6Sn1,mp-8290,BaSnF6,"['Ba', 'Sn', 'F']",8.0,-41.81365948,0.001747074735107823,0.0,
6945,Ba2Hg2Sn2,mp-11819,BaSnHg,"['Ba', 'Sn', 'Hg']",6.0,-15.92452365,0.0012789868001306104,0.0,
23133,Ba2Hg2S8Sn2,mp-555954,BaSnHgS4,"['Ba', 'Sn', 'Hg', 'S']",14.0,-57.52834487,2.782178571258953e-05,0.0,
29674,Ba1O3Sn1,mp-3163,BaSnO3,"['Ba', 'Sn', 'O']",5.0,-31.64877117,3.9479378912687935e-05,0.0,
18322,Ba4S8Sn4,mp-12181,BaSnS2,"['Ba', 'Sn', 'S']",16.0,-77.48452326,0.0,0.0,
4095,Ba4N48P24Sr8,mp-567486,BaSr2(PN2)6,"['Ba', 'Sr', 'P', 'N']",84.0,-623.96219673,7.732338724952825e-05,0.0,
5154,Ba1Mg1O8Si2Sr2,mp-1019558,BaSr2Mg(SiO4)2,"['Ba', 'Sr', 'Mg', 'Si', 'O']",14.0,-99.14633876,0.0,0.0,
9099,Ba1Co4O12Sr3,mp-1227831,BaSr3(CoO3)4,"['Ba', 'Sr', 'Co', 'O']",20.0,-120.644463,0.012513593164062975,2.398081733190338e-14,
24941,Ba1Sr4,mp-1227650,BaSr4,"['Ba', 'Sr']",5.0,-8.70715978,0.0,0.0,
9059,Ba2O28Sr8U6,mp-559427,BaSr4U3O14,"['Ba', 'Sr', 'U', 'O']",44.0,-364.47636828,4.655054332403097e-05,0.0,
26525,Ba4Bi12Sr4,mp-1214332,BaSrBi3,"['Ba', 'Sr', 'Bi']",20.0,-75.89632483,0.0,1.7763568394002505e-15,
14278,Al9Ba1Mn2O20Pb1Sr1,mp-1227545,BaSrMn2Al9PbO20,"['Ba', 'Sr', 'Mn', 'Al', 'Pb', 'O']",34.0,-246.59907708,0.004302621298700515,0.0,
23635,Ba2Nd2O12Sb2Sr2,mp-1522133,BaSrNdSbO6,"['Ba', 'Sr', 'Nd', 'Sb', 'O']",20.0,-136.29934643,0.009791620478508456,-7.105427357601002e-15,
18482,Ba2O12Pr2Sb2Sr2,mp-1519366,BaSrPrSbO6,"['Ba', 'Sr', 'Pr', 'Sb', 'O']",20.0,-135.98081018,0.008127471957025456,0.0,
15347,Ba2O14Sr2Ta4,mp-559151,BaSrTa2O7,"['Ba', 'Sr', 'Ta', 'O']",22.0,-191.07572651,0.0002371628089488098,0.0,
28969,Ba1Sr1Tl2,mp-1183386,BaSrTl2,"['Ba', 'Sr', 'Tl']",4.0,-10.00721021,0.00468814141754148,0.0,
14934,Ba2Ni8O32Sr2V8,mp-1227604,BaSrV4(NiO4)4,"['Ba', 'Sr', 'V', 'Ni', 'O']",52.0,-346.46493523,0.00043672141188455527,0.0,
3426,Ba12O72Ta24,mp-561103,BaTa2O6,"['Ba', 'Ta', 'O']",108.0,-986.08910515,0.03153704903067123,0.0,
5122,Ba1O16Ta6,mp-769349,BaTa6O16,"['Ba', 'Ta', 'O']",23.0,-218.98264094,0.009351601878387683,0.0,
31738,Ba8F56Ta8,mp-559835,BaTaF7,"['Ba', 'Ta', 'F']",72.0,-469.7493073,3.051859265568169e-05,-8.881784197001252e-15,
17033,Ba2S6Ta2,mp-4001,BaTaS3,"['Ba', 'Ta', 'S']",10.0,-67.20448309,0.031500904555728404,0.0,
15169,Ba4O16Tb8,mp-18258,BaTb2O4,"['Ba', 'Tb', 'O']",28.0,-215.51683607,1.045944474142857e-06,0.0,
15583,Ag2Ba2S6Tb2,mp-1095340,BaTbAgS3,"['Ba', 'Tb', 'Ag', 'S']",12.0,-62.89910963,0.018532184967448018,0.0,
17331,Ag2Ba2Tb2Te6,mp-1095278,BaTbAgTe3,"['Ba', 'Tb', 'Ag', 'Te']",12.0,-52.73400304,0.002014128075358279,0.0,
15338,Ba2Cu2Tb2Te6,mp-1095403,BaTbCuTe3,"['Ba', 'Tb', 'Cu', 'Te']",12.0,-55.10591994,0.0003134775952142732,0.0,
2808,Ba2Mn4O10Tb2,mp-1106241,BaTbMn2O5,"['Ba', 'Tb', 'Mn', 'O']",18.0,-135.98857091,5.552914281103938e-05,0.0,
5445,Ba6O18Tc6,mp-555174,BaTcO3,"['Ba', 'Tc', 'O']",30.0,-224.36593264,0.011104361218748693,0.0,
21419,Ba1Te1,mp-1000,BaTe,"['Ba', 'Te']",2.0,-8.64743015,1.3928906249738304e-05,0.0,
21314,Ba2Te4,mp-2150,BaTe2,"['Ba', 'Te']",6.0,-23.57028277,0.0016439574820967806,0.0,
10000,Ba2F20Te4,mp-29177,BaTe2F10,"['Ba', 'Te', 'F']",26.0,-121.04145648,0.0,0.0,
18398,Ba2Te6,mp-8234,BaTe3,"['Ba', 'Te']",8.0,-29.7785713,-3.552713678800501e-15,0.0,
17883,Ba4O36Te16,mp-1195016,BaTe4O9,"['Ba', 'Te', 'O']",56.0,-313.45920546,0.0009185679227119437,0.0,
16428,Ba2O6Te2,mp-5431,BaTeO3,"['Ba', 'Te', 'O']",10.0,-59.26090204,0.0,1.7763568394002505e-15,
10846,Ba4O16Te4,mp-754967,BaTeO4,"['Ba', 'Te', 'O']",24.0,-142.42756787,0.00025825505045684594,0.0,
20299,Ba4S12Te4,mp-27499,BaTeS3,"['Ba', 'Te', 'S']",20.0,-87.65256829,0.0062215741086557586,0.0,
13058,Ba2O16P4Th2,mp-1192105,BaTh(PO4)2,"['Ba', 'Th', 'P', 'O']",24.0,-190.65083043,0.0006424363069665873,0.0,
10639,Ba4S20Th8,mp-1195483,BaTh2S5,"['Ba', 'Th', 'S']",32.0,-215.9375359,0.0001504360473632005,0.0,
9881,Ba2N4Th2,mp-1206598,BaThN2,"['Ba', 'Th', 'N']",8.0,-61.47733785,6.094486694152579e-05,-1.7763568394002505e-15,
20174,Ba4O12Th4,mp-1189614,BaThO3,"['Ba', 'Th', 'O']",20.0,-163.96478364,0.0,0.0,
28315,As2Ba1O8Ti1,mp-1214314,BaTi(AsO4)2,"['Ba', 'Ti', 'As', 'O']",12.0,-83.56659356,0.0015716469470214989,0.0,
14545,Ba1I6O18Ti1,mp-1227524,BaTi(IO3)6,"['Ba', 'Ti', 'I', 'O']",26.0,-130.82581308,0.0033946920477765374,0.0,
18601,Ba1O8P2Ti1,mp-1214296,BaTi(PO4)2,"['Ba', 'Ti', 'P', 'O']",12.0,-93.01787938,0.0025086732893875308,0.0,
2173,Ba4O84S24Ti4,mp-1198551,BaTi(S2O7)3,"['Ba', 'Ti', 'S', 'O']",116.0,-740.45391114,2.4868995751603507e-14,2.4868995751603507e-14,
4846,Ba2O18Si6Ti2,mp-6661,BaTi(SiO3)3,"['Ba', 'Ti', 'Si', 'O']",28.0,-223.66633894,0.0,0.0,
1688,As2Ba1O1Ti2,mp-1018735,BaTi2As2O,"['Ba', 'Ti', 'As', 'O']",6.0,-41.4793002,0.00013186160481826192,0.0,
27549,Ba4O20Ti8,mp-558159,BaTi2O5,"['Ba', 'Ti', 'O']",32.0,-269.08659066,4.508710205008981e-05,6.217248937900877e-14,
27157,Ba1O1Sb2Ti2,mp-1070806,BaTi2Sb2O,"['Ba', 'Ti', 'Sb', 'O']",6.0,-39.14932631,4.309323079532135e-05,6.217248937900877e-15,
13134,Ba2O32Ti16,mp-759489,BaTi8O16,"['Ba', 'Ti', 'O']",50.0,-440.7740964,0.00023846262503468552,-3.375077994860476e-14,
8933,Ba2Cu8O34P8Ti2,mp-1195143,BaTiCu4P4O17,"['Ba', 'Ti', 'Cu', 'P', 'O']",54.0,-370.37232772,0.00017497946903954897,-2.5757174171303632e-14,
7942,Ba1F6Ti1,mp-8291,BaTiF6,"['Ba', 'Ti', 'F']",8.0,-50.32407625,9.498001098684483e-05,0.0,
15003,Ba1O3Ti1,mp-5020,BaTiO3,"['Ba', 'Ti', 'O']",5.0,-40.05853491,3.253216012666371e-05,-3.019806626980426e-14,
2378,Ba4F16O4Ti4,mp-16915,BaTiOF4,"['Ba', 'Ti', 'O', 'F']",28.0,-189.54018829,1.0452393973459095e-05,0.0,
13393,Ba2Se6Ti2,mp-1079893,BaTiSe3,"['Ba', 'Ti', 'Se']",10.0,-55.47455041,0.024467951591796933,0.0,
17830,Ba2Tl4,mp-30434,BaTl2,"['Ba', 'Tl']",6.0,-15.6343884,0.0,0.0,
1083,Ba4O16Tl8,mp-754897,BaTl2O4,"['Ba', 'Tl', 'O']",28.0,-141.48699721,0.00018007488002336203,0.0,
31224,Ba2Tl8,mp-1091391,BaTl4,"['Ba', 'Tl']",10.0,-25.17248488,0.004714869925415144,0.0,
10667,Ba1Hg2Tl1,mp-865984,BaTlHg2,"['Ba', 'Tl', 'Hg']",4.0,-6.50184303,0.0,-2.220446049250313e-16,
3854,Ba4O16Tl4V4,mp-541006,BaTlVO4,"['Ba', 'Tl', 'V', 'O']",28.0,-185.39304581,0.0,-1.3322676295501878e-14,
615,Ba1F8Tm2,mp-7693,BaTm2F8,"['Ba', 'Tm', 'F']",11.0,-71.2176444,2.1363139216745708e-05,-2.6645352591003757e-15,
15007,Ba4S20U8,mp-1199878,BaU2S5,"['Ba', 'U', 'S']",32.0,-232.10276336,0.0004211141772456628,2.6645352591003757e-14,
19814,Ba4Se20U8,mp-1195370,BaU2Se5,"['Ba', 'U', 'Se']",32.0,-212.74716349,0.0009775416943362814,0.0,
3215,Ba2O24U4V4,mp-1227825,BaU2V2O12,"['Ba', 'U', 'V', 'O']",34.0,-287.10528242,0.0017555880032169568,0.0,
22672,Ba2I12U2,mp-574430,BaUI6,"['Ba', 'U', 'I']",16.0,-64.00097492,0.0020439669064407084,0.0,
17064,Ba4O12U4,mp-35730,BaUO3,"['Ba', 'U', 'O']",20.0,-173.70227596,0.0,0.0,
17429,Ba4O16U4,mp-5611,BaUO4,"['Ba', 'U', 'O']",24.0,-209.05107939,5.8332504886848824e-05,0.0,
30318,Ba4F4O24P4U4,mp-1203857,BaUPO6F,"['Ba', 'U', 'P', 'O', 'F']",40.0,-320.65114657,0.0004014443925779432,0.0,
19293,Ba4S12U4,mp-3601,BaUS3,"['Ba', 'U', 'S']",20.0,-136.89449099,3.611944531201061e-05,0.0,
17818,Ba4O24Ti4U4,mp-560110,BaUTiO6,"['Ba', 'U', 'Ti', 'O']",36.0,-317.07288697,1.1745679245223073e-05,-8.881784197001252e-15,
1537,Ba2O30V20,mp-19458,BaV10O15,"['Ba', 'V', 'O']",52.0,-410.45500181,0.004894562172475858,0.0,
13536,Ba4Co8O32V8,mp-19504,BaV2(CoO4)2,"['Ba', 'V', 'Co', 'O']",52.0,-365.97680154,0.0003778211959133415,1.4210854715202004e-14,
19885,Ba1Ni2O8V2,mp-18723,BaV2(NiO4)2,"['Ba', 'V', 'Ni', 'O']",13.0,-86.78465054,0.0,0.0,
18885,Ba2O28P8V4,mp-557348,BaV2(P2O7)2,"['Ba', 'V', 'P', 'O']",42.0,-315.87013537,0.0,0.0,
101,Ba4O40P8V8,mp-19512,BaV2(PO5)2,"['Ba', 'V', 'P', 'O']",60.0,-449.59731718,0.021364230216153857,0.0,
6659,Ba2H4O28Se8V4,mp-735536,BaV2H2(Se2O7)2,"['Ba', 'V', 'H', 'Se', 'O']",46.0,-276.68175026,0.0009985680275237385,-2.3092638912203256e-14,
18311,Ba4H8O44Se8V8,mp-1195240,BaV2H2Se2O11,"['Ba', 'V', 'H', 'Se', 'O']",72.0,-450.70459639,0.0016983377636723418,0.0,
19848,Ba1H2Ni3O10V2,mp-1205427,BaV2Ni3(HO5)2,"['Ba', 'V', 'Ni', 'H', 'O']",18.0,-112.11917364,0.001257314325085801,0.0,
23137,Ba3O18V6,mp-18929,BaV2O6,"['Ba', 'V', 'O']",27.0,-199.48761907,3.8441200810979126e-05,0.0,
4556,Ba4O32Te4V8,mp-556790,BaV2TeO8,"['Ba', 'V', 'Te', 'O']",48.0,-330.86630441,0.01420246136392489,0.0,
21147,As4Ba4O24V4,mp-17264,BaVAsO6,"['Ba', 'V', 'As', 'O']",36.0,-246.54201514,0.0,0.0,
22447,Ba4Cl4O12V4,mp-559481,BaVClO3,"['Ba', 'V', 'Cl', 'O']",24.0,-159.77864544,5.766070312240856e-05,0.0,
11271,Ba2Cu8O34P8V2,mp-559899,BaVCu4P4O17,"['Ba', 'V', 'Cu', 'P', 'O']",54.0,-362.70554271,0.0017624650057834756,0.0,
12880,Ba4F16O4V4,mp-556379,BaVOF4,"['Ba', 'V', 'O', 'F']",28.0,-174.07769461,0.00829567647972862,2.398081733190338e-14,
16580,Ba4O24P4V4,mp-18520,BaVPO6,"['Ba', 'V', 'P', 'O']",36.0,-264.54450292,3.8522656238271225e-06,0.0,
14840,Ba2S6V2,mp-3451,BaVS3,"['Ba', 'V', 'S']",10.0,-60.50749342,0.0551377307539056,-5.329070518200751e-15,
7363,Ba4F28W4,mp-1047945,BaWF7,"['Ba', 'W', 'F']",36.0,-199.14084244,0.03351327338842758,-8.881784197001252e-15,
29965,Ba4N12W4,mp-989622,BaWN3,"['Ba', 'W', 'N']",20.0,-171.67484613,0.0,0.0,
15126,Ba2O8W2,mp-19048,BaWO4,"['Ba', 'W', 'O']",12.0,-87.71544011,1.3032926435840864e-06,0.0,
26699,Ba1F8Y2,mp-768240,BaY2F8,"['Ba', 'Y', 'F']",11.0,-74.68046703,0.0013342517116603503,1.2434497875801753e-14,
6579,Ba4O16Y8,mp-3952,BaY2O4,"['Ba', 'Y', 'O']",28.0,-229.96784122,0.0,0.0,
11086,Ba2O20Si6Y4,mp-560478,BaY2Si3O10,"['Ba', 'Y', 'Si', 'O']",32.0,-262.47337684,4.58409374992641e-05,0.0,
1129,Ag2Ba2Se6Y2,mp-6647,BaYAgSe3,"['Ba', 'Y', 'Ag', 'Se']",12.0,-61.96237684,0.0014981834586587084,0.0,
21719,Ag2Ba2Te6Y2,mp-10337,BaYAgTe3,"['Ba', 'Y', 'Ag', 'Te']",12.0,-56.44382754,0.0018700489534504428,0.0,
589,Ba2Cu2S6Y2,mp-1103275,BaYCuS3,"['Ba', 'Y', 'Cu', 'S']",12.0,-70.26687953,8.854563639282276e-05,0.0,
23437,Ba2Cu2Se6Y2,mp-1101801,BaYCuSe3,"['Ba', 'Y', 'Cu', 'Se']",12.0,-64.9152258,0.002227541569011393,0.0,
27166,Ba2Cu2Te6Y2,mp-10336,BaYCuTe3,"['Ba', 'Y', 'Cu', 'Te']",12.0,-58.79974981,0.002575167912596932,0.0,
14779,Ba2F10Y2,mp-752675,BaYF5,"['Ba', 'Y', 'F']",14.0,-92.0737634,0.0004066705078109578,0.0,
22646,Ba8Fe8O32Y8,mp-1195207,BaYFeO4,"['Ba', 'Y', 'Fe', 'O']",56.0,-416.45871655,3.2261488531304394e-05,0.0,
30887,Ba1Mn2O5Y1,mp-18850,BaYMn2O5,"['Ba', 'Y', 'Mn', 'O']",9.0,-69.80340951,0.0,0.0,
17509,Ba2N14Si8Y2,mp-11670,BaYSi4N7,"['Ba', 'Y', 'Si', 'N']",26.0,-209.27871577,6.686268037014997e-07,0.0,
25916,Ba2Ga2O14Y2Zn6,mp-1192369,BaYZn3GaO7,"['Ba', 'Y', 'Zn', 'Ga', 'O']",26.0,-155.99990662,0.0013022036929095648,0.0,
4050,Ba4O24Se8Zn4,mp-1205399,BaZn(SeO3)2,"['Ba', 'Zn', 'Se', 'O']",40.0,-219.62218064,0.0006626898105466239,0.0,
29475,Ba2Zn26,mp-672225,BaZn13,"['Ba', 'Zn']",28.0,-41.47651765,0.013253587608119455,0.0,
333,Ba2Zn4,mp-30435,BaZn2,"['Ba', 'Zn']",6.0,-10.06098318,0.045270888967327894,0.0,
10195,As8Ba4O32Zn8,mp-15739,BaZn2(AsO4)2,"['Ba', 'Zn', 'As', 'O']",52.0,-302.40221715,1.4298828121539486e-06,0.0,
29937,Ba4O32P8Zn8,mp-6089,BaZn2(PO4)2,"['Ba', 'Zn', 'P', 'O']",52.0,-339.34657118,1.2434497875801753e-14,1.2434497875801753e-14,
4164,Ba2O14Si4Zn4,mp-560441,BaZn2Si2O7,"['Ba', 'Zn', 'Si', 'O']",24.0,-158.77649485,7.87449544237262e-06,0.0,
2589,Ba2Zn10,mp-303,BaZn5,"['Ba', 'Zn']",12.0,-19.08867092,0.0,0.0,
11818,As2Ba2F2Zn2,mp-1079320,BaZnAsF,"['Ba', 'Zn', 'As', 'F']",8.0,-34.51328836,0.00019382484252972176,0.0,
14351,Ba2C2F4O6Zn2,mp-11166,BaZnCO3F2,"['Ba', 'Zn', 'C', 'O', 'F']",16.0,-99.54373841,5.8551428221420565e-06,6.217248937900877e-15,
25350,Ba4Cl16Zn4,mp-23373,BaZnCl4,"['Ba', 'Zn', 'Cl']",24.0,-86.90115622,0.0,0.0,
14676,Ba4Cu4F28Zn4,mp-1041302,BaZnCuF7,"['Ba', 'Zn', 'Cu', 'F']",40.0,-179.53550513,0.005541700555663276,0.0,
15997,Ba2F8Zn2,mp-3881,BaZnF4,"['Ba', 'Zn', 'F']",12.0,-58.67894357,0.0,0.0,
16344,Ba1In3Zn1,mp-1227349,BaZnIn3,"['Ba', 'Zn', 'In']",5.0,-13.18032521,2.2757072265733314e-05,0.0,
19901,Ba4F28Mo4Zn4,mp-1047902,BaZnMoF7,"['Ba', 'Zn', 'Mo', 'F']",40.0,-209.67372959,0.0016520208701171768,0.0,
30029,Ba3O6Zn3,mp-4236,BaZnO2,"['Ba', 'Zn', 'O']",12.0,-63.48701012,0.0,0.0,
5685,Ba2O14P4Zn2,mp-14345,BaZnP2O7,"['Ba', 'Zn', 'P', 'O']",22.0,-150.10618422,2.5757174171303632e-14,2.5757174171303632e-14,
18893,Ba2O2S2Zn2,mp-548469,BaZnSO,"['Ba', 'Zn', 'S', 'O']",8.0,-38.77441733,0.0001623265478514213,0.0,
2706,Ba2Si2Zn2,mp-31147,BaZnSi,"['Ba', 'Zn', 'Si']",6.0,-19.45946837,0.0012665250236003622,0.0,
11063,Ba2Sn2Zn2,mp-31148,BaZnSn,"['Ba', 'Zn', 'Sn']",6.0,-17.5308008,0.0014421177449541744,0.0,
20069,Ba8S32Sn8Zn8,mp-13593,BaZnSnS4,"['Ba', 'Zn', 'Sn', 'S']",56.0,-248.31226981,6.529392020127034e-05,0.0,
8071,Ba2O14Te4Zn2,mp-1191811,BaZnTe2O7,"['Ba', 'Zn', 'Te', 'O']",22.0,-122.11879108,0.00012877015625090138,0.0,
15640,As2Ba1O8Zr1,mp-1214231,BaZr(AsO4)2,"['Ba', 'Zr', 'As', 'O']",12.0,-85.32365863,0.00090516665690199,0.0,
5758,B4Ba2O12Zr2,mp-559348,BaZr(BO3)2,"['Ba', 'Zr', 'B', 'O']",20.0,-165.47558642,7.109403905758427e-05,-3.552713678800501e-15,
18441,Ba1O8P2Zr1,mp-556139,BaZr(PO4)2,"['Ba', 'Zr', 'P', 'O']",12.0,-94.83538739,0.0003200480257170568,0.0,
25597,Ba2O18Si6Zr2,mp-1214228,BaZr(SiO3)3,"['Ba', 'Zr', 'Si', 'O']",28.0,-227.18304939,0.00046130544222577896,-1.5987211554602254e-14,
23881,Ba2F20Zr4,mp-505400,BaZr2F10,"['Ba', 'Zr', 'F']",26.0,-173.49661249,8.41368780042373e-05,0.0,
15023,Ba1O24P6Zr4,mp-560308,BaZr4(PO4)6,"['Ba', 'Zr', 'P', 'O']",35.0,-284.96920331,4.827177901844948e-05,0.0,
6485,Ba2F12Zr2,mp-8232,BaZrF6,"['Ba', 'Zr', 'F']",16.0,-104.41570224,0.0002545871728516502,0.0,
9602,Ba2N4Zr2,mp-3104,BaZrN2,"['Ba', 'Zr', 'N']",8.0,-64.233377,0.0,0.0,
30432,Ba1O3Zr1,mp-3834,BaZrO3,"['Ba', 'Zr', 'O']",5.0,-41.44540343,0.00016584720312451395,0.0,
9871,Ba4S12Zr4,mp-540771,BaZrS3,"['Ba', 'Zr', 'S']",20.0,-127.63342914,0.0004633269355460712,6.217248937900877e-15,
24601,Ba4Se12Zr4,mp-998427,BaZrSe3,"['Ba', 'Zr', 'Se']",20.0,-116.56289913,0.0,0.0,
7012,Be2,mp-87,Be,['Be'],2.0,-7.47882573,0.003631749791870309,0.0,
23604,B16Be8H64,mp-27344,Be(BH4)2,"['Be', 'B', 'H']",88.0,-363.95816107,0.0,0.0,
20885,Be2Co4O8,mp-770957,Be(CoO2)2,"['Be', 'Co', 'O']",14.0,-88.60843547,0.00637405399658153,0.0,
4902,Be6Ga12O24,mp-757917,Be(GaO2)2,"['Be', 'Ga', 'O']",42.0,-266.42456677,0.00015768293154660995,-2.6645352591003757e-15,
12645,Be16H64N32,mp-28018,Be(H2N)2,"['Be', 'H', 'N']",112.0,-607.63532156,2.6831277901706585e-06,0.0,
24238,Be6N24P12,mp-1019545,Be(PN2)2,"['Be', 'P', 'N']",42.0,-316.45461203,1.1858986231239044e-05,-3.552713678800501e-15,
15823,Be4O24P8,mp-27588,Be(PO3)2,"['Be', 'P', 'O']",36.0,-260.6290724,0.00031261155599082713,0.0,
24377,Be12Mo1,mp-1475,Be12Mo,"['Be', 'Mo']",13.0,-57.38006194,0.0,0.0,
20312,Be12Nb1,mp-568912,Be12Nb,"['Be', 'Nb']",13.0,-56.90358523,0.00024753085411699516,0.0,
30366,Be12V1,mp-571438,Be12V,"['Be', 'V']",13.0,-55.28918795,0.0,0.0,
20825,Be12W1,mp-568827,Be12W,"['Be', 'W']",13.0,-59.18454541,0.0006873873317312373,0.0,
13230,Be15Cu8Nb6,mp-1214241,Be15(Nb3Cu4)2,"['Be', 'Nb', 'Cu']",29.0,-155.07198021,2.0891364493458298e-05,0.0,
20215,Be15Nb6Ni8,mp-1214229,Be15(Nb3Ni4)2,"['Be', 'Nb', 'Ni']",29.0,-174.05733783,6.8820986065532e-07,0.0,
25933,Be17Nb2,mp-30441,Be17Nb2,"['Be', 'Nb']",19.0,-87.53082193,0.0001349631825648956,0.0,
16998,Be68Os12,mp-1199166,Be17Os3,"['Be', 'Os']",80.0,-410.80917011,0.00025181344433544695,0.0,
2569,Be68Ru12,mp-30443,Be17Ru3,"['Be', 'Ru']",80.0,-387.80852169,8.329821093777667e-05,0.0,
16484,Be44Re2,mp-569364,Be22Re,"['Be', 'Re']",46.0,-192.40958206,6.324972348537017e-06,0.0,
16295,As4Be8H20O28,mp-1200275,Be2AsH5O7,"['Be', 'As', 'H', 'O']",60.0,-348.70340691,0.0005195690781247819,0.0,
1562,B1Be2H3O5,mp-1227442,Be2BH3O5,"['Be', 'B', 'H', 'O']",11.0,-71.27929861,0.0002874565749291236,0.0,
3725,B8Be16H8O32,mp-23883,Be2BHO4,"['Be', 'B', 'H', 'O']",64.0,-450.85524539,6.011514892989567e-06,0.0,
31705,B2Be4F2O6,mp-554023,Be2BO3F,"['Be', 'B', 'O', 'F']",14.0,-101.28699203,1.2026456472469249e-05,0.0,
23233,Be2C1,mp-1569,Be2C,"['Be', 'C']",3.0,-17.40140258,0.0,0.0,
26706,Be2Co1Ir1,mp-867274,Be2CoIr,"['Be', 'Co', 'Ir']",4.0,-25.28609194,0.0,0.0,
2609,Be2Co1Ni1,mp-867271,Be2CoNi,"['Be', 'Co', 'Ni']",4.0,-22.04177422,0.0,0.0,
23815,Be2Co1Pt1,mp-867270,Be2CoPt,"['Be', 'Co', 'Pt']",4.0,-23.02549746,0.0,0.0,
29082,Be8Cr4,mp-30438,Be2Cr,"['Be', 'Cr']",12.0,-71.17287371,0.00018253140950452718,0.0,
14564,Be4Cu2,mp-2031,Be2Cu,"['Be', 'Cu']",6.0,-23.99831,-4.440892098500626e-16,0.0,
13782,Be2Cu1Ir1,mp-867273,Be2CuIr,"['Be', 'Cu', 'Ir']",4.0,-22.01548924,0.043936217946471956,0.0,
23350,Be2Cu1Pt1,mp-865869,Be2CuPt,"['Be', 'Cu', 'Pt']",4.0,-19.48773981,0.01051026367889385,8.881784197001252e-16,
13924,Be2Cu1Rh1,mp-865308,Be2CuRh,"['Be', 'Cu', 'Rh']",4.0,-20.63177296,0.01616526524902362,0.0,
27183,Be8Fe4,mp-2225,Be2Fe,"['Be', 'Fe']",12.0,-67.12647378,0.0003985269596347152,-8.881784197001252e-16,
10203,Be2Ir1Pd1,mp-865003,Be2IrPd,"['Be', 'Ir', 'Pd']",4.0,-23.90392007,0.03766515461914022,0.0,
7014,Be2Ir1Pt1,mp-867280,Be2IrPt,"['Be', 'Ir', 'Pt']",4.0,-25.22699361,0.0014824744226071829,0.0,
8998,Be2Ir1Ru1,mp-1183419,Be2IrRu,"['Be', 'Ir', 'Ru']",4.0,-27.1402367,0.05639580775756858,0.0,
22188,Be8Mo4,mp-1677,Be2Mo,"['Be', 'Mo']",12.0,-77.13690127,2.5919205723923255e-06,-8.881784197001252e-16,
17540,Be4Nb6,mp-11272,Be2Nb3,"['Be', 'Nb']",10.0,-76.91424098,0.051959792787759085,0.0,
6746,Be2Ir1Ni1,mp-865229,Be2NiIr,"['Be', 'Ni', 'Ir']",4.0,-24.42595603,0.00036686179321332446,0.0,
27229,Be2Ni1Pt1,mp-866224,Be2NiPt,"['Be', 'Ni', 'Pt']",4.0,-21.90011127,0.0,0.0,
6136,Be2Ni1Rh1,mp-864895,Be2NiRh,"['Be', 'Ni', 'Rh']",4.0,-22.99088441,0.0,0.0,
1167,Be8O32P8Pb4,mp-1198968,Be2P2PbO8,"['Be', 'P', 'Pb', 'O']",52.0,-369.4276261,0.00030155824820443655,7.105427357601002e-15,
24179,Be2Pd1Pt1,mp-864961,Be2PdPt,"['Be', 'Pd', 'Pt']",4.0,-21.46595324,0.0,0.0,
21668,Be2Pd1Rh1,mp-866115,Be2PdRh,"['Be', 'Pd', 'Rh']",4.0,-22.6254438,0.006405983441162277,0.0,
1096,Be2Pt1Rh1,mp-862600,Be2PtRh,"['Be', 'Pt', 'Rh']",4.0,-23.97593027,0.0006164569547530974,0.0,
22620,Be8Re4,mp-11275,Be2Re,"['Be', 'Re']",12.0,-84.2623946,0.0034767246175126942,-8.881784197001252e-16,