,Composition,MaterialId,Reduced Formula,Elements,NSites,Corrected Energy,Decomposition Energy Per Atom All,Decomposition Energy Per Atom MP,Directory
6301,As12Ba4O22,mp-757280,Ba2As6O11,"['Ba', 'As', 'O']",38.0,-235.84583211,0.0015826748653369194,0.0,
18792,As1Au1Ba2,mp-861937,Ba2AsAu,"['Ba', 'As', 'Au']",4.0,-15.56654186,0.017927218105467713,0.0,
26227,B22Ba4H14O44,mp-1196038,Ba2B11H7O22,"['Ba', 'B', 'H', 'O']",84.0,-605.56429879,0.00013876533482282127,0.0,
27532,As2B4Ba4F36H6,mp-1198263,Ba2B2AsH3F18,"['Ba', 'B', 'As', 'H', 'F']",52.0,-273.09190501,7.575439002316386e-05,0.0,
23843,B8Ba8O20,mp-771158,Ba2B2O5,"['Ba', 'B', 'O']",36.0,-267.10258192,0.0005749813888895616,0.0,
3351,B16Ba8Se52,mp-30105,Ba2B4Se13,"['Ba', 'B', 'Se']",76.0,-346.06829418,0.0,0.0,
19994,B20Ba8Br4O36,mp-1214841,Ba2B5BrO9,"['Ba', 'B', 'Br', 'O']",68.0,-511.28730114,0.0,0.0,
17260,B20Ba8Cl4O36,mp-555742,Ba2B5ClO9,"['Ba', 'B', 'Cl', 'O']",68.0,-515.12012108,1.8619515155471333e-05,0.0,
18870,B20Ba8H4O40,mp-1198110,Ba2B5HO10,"['Ba', 'B', 'H', 'O']",72.0,-543.9654469,0.00048471916232717405,0.0,
2712,B12Ba4O24Pb2,mp-1194549,Ba2B6PbO12,"['Ba', 'B', 'Pb', 'O']",42.0,-319.46288666,9.761695870569298e-05,0.0,
18361,B12Ba24Cl12N24,mp-568923,Ba2BN2Cl,"['Ba', 'B', 'N', 'Cl']",72.0,-450.2319355,0.02724196605089002,0.0,
25878,Ba4Bi4O10,mp-28670,Ba2Bi2O5,"['Ba', 'Bi', 'O']",18.0,-107.03730781,0.015850215796440636,0.0,
18948,Ba4Bi4O4Se6,mp-1104988,Ba2Bi2Se3O2,"['Ba', 'Bi', 'Se', 'O']",18.0,-91.2416349,0.00014100409071637898,0.0,
24430,Ba2Bi3,mp-569529,Ba2Bi3,"['Ba', 'Bi']",5.0,-19.3386698,7.724300292766273e-05,0.0,
6555,Au1Ba2Bi1,mp-862947,Ba2BiAu,"['Ba', 'Bi', 'Au']",4.0,-14.46340564,0.010495654971923951,0.0,
30660,Ba2Bi1O6Sb1,mp-23127,Ba2BiSbO6,"['Ba', 'Bi', 'Sb', 'O']",10.0,-61.95282319,0.0,0.0,
19303,Ba4Br4O2,mp-1079891,Ba2Br2O,"['Ba', 'Br', 'O']",10.0,-48.33218913,0.0004376116582029965,0.0,
2753,Ba2Br1N1,mp-1018098,Ba2BrN,"['Ba', 'Br', 'N']",4.0,-18.5642478,2.1881787109379047e-05,0.0,
10315,B6Ba2Ca1O12,mp-8271,Ba2Ca(BO2)6,"['Ba', 'Ca', 'B', 'O']",21.0,-162.44471531,1.696882254620391e-05,0.0,
10388,B2Ba2Ca1O6,mp-549737,Ba2Ca(BO3)2,"['Ba', 'Ca', 'B', 'O']",11.0,-80.23966577,0.0,0.0,
22243,Ba4Ca2O12Pd6,mp-17380,Ba2Ca(PdO2)3,"['Ba', 'Ca', 'Pd', 'O']",24.0,-142.35447709,0.0,0.0,
10329,Ba4Ca2Co4Cu2F28,mp-1354389,Ba2CaCo2CuF14,"['Ba', 'Ca', 'Co', 'Cu', 'F']",40.0,-203.59151974,0.013306845676826384,0.0,
5923,Ba4Ca2Cr4Cu2F28,mp-582663,Ba2CaCr2CuF14,"['Ba', 'Ca', 'Cr', 'Cu', 'F']",40.0,-227.85180033,0.0,2.220446049250313e-14,
5075,Ba4Ca2Cu6F28,mp-1045459,Ba2CaCu3F14,"['Ba', 'Ca', 'Cu', 'F']",40.0,-192.58306126,0.0036380009707031036,-8.881784197001252e-15,
27465,Ba4Ca2Cu2F28Ga4,mp-1214730,Ba2CaGa2CuF14,"['Ba', 'Ca', 'Ga', 'Cu', 'F']",40.0,-207.79597579,0.0013440073495987193,-1.9539925233402755e-14,
5092,Ba2Ca1Ir1O6,mp-20841,Ba2CaIrO6,"['Ba', 'Ca', 'Ir', 'O']",10.0,-65.62134923,4.785898242154474e-05,0.0,
14243,Al4Ba4Ca2F28Mg2,mp-540862,Ba2CaMgAl2F14,"['Ba', 'Ca', 'Mg', 'Al', 'F']",40.0,-232.25296875,0.0,0.0,
2023,Ba4Ca2Cu2F28Mn4,mp-1045850,Ba2CaMn2CuF14,"['Ba', 'Ca', 'Mn', 'Cu', 'F']",40.0,-222.59764766,0.001937742215819327,0.0,
25400,Ba4Ca2F28Mn2V4,mp-1214724,Ba2CaMnV2F14,"['Ba', 'Ca', 'Mn', 'V', 'F']",40.0,-242.41882757,0.00902837989941041,0.0,
19488,Ba16Ca8Mo8N32,mp-1214858,Ba2CaMoN4,"['Ba', 'Ca', 'Mo', 'N']",64.0,-459.2054541,0.001390811944579795,0.0,
3920,Ba2Ca1Mo1O6,mp-19403,Ba2CaMoO6,"['Ba', 'Ca', 'Mo', 'O']",10.0,-68.07442311,0.0029952134140636133,0.0,
23238,Ba2Ca1O6Os1,mp-6739,Ba2CaOsO6,"['Ba', 'Ca', 'Os', 'O']",10.0,-69.4508128,0.00026571707031308733,0.0,
1551,Ba4Ca2H12O32P8,mp-758007,Ba2CaP4(H3O8)2,"['Ba', 'Ca', 'P', 'H', 'O']",58.0,-380.6910195,0.0010928244881478477,0.0,
31793,Ba2Ca1O6Re1,mp-12417,Ba2CaReO6,"['Ba', 'Ca', 'Re', 'O']",10.0,-73.01458638,7.133484374755028e-06,0.0,
20703,Ba2Ca1O6Se1,mp-1520564,Ba2CaSeO6,"['Ba', 'Ca', 'Se', 'O']",10.0,-60.40316751,0.0020334198984377494,0.0,
31216,B4Ba4Ca2O28Si8,mp-1019518,Ba2CaSi4(BO7)2,"['Ba', 'Ca', 'Si', 'B', 'O']",46.0,-353.48487252,7.105427357601002e-15,7.105427357601002e-15,
20413,Ba2Ca1O6Te1,mp-550685,Ba2CaTeO6,"['Ba', 'Ca', 'Te', 'O']",10.0,-62.42182466,3.4953433594608896e-05,0.0,
31666,Ba4Ca2O12U2,mp-557448,Ba2CaUO6,"['Ba', 'Ca', 'U', 'O']",20.0,-156.4101738,0.00012822406250023732,0.0,
5976,Ba4Ca2Cu2F28V4,mp-581167,Ba2CaV2CuF14,"['Ba', 'Ca', 'V', 'Cu', 'F']",40.0,-229.22104581,0.002941218149409508,0.0,
27364,Ba4Ca2F28Fe2V4,mp-1214736,Ba2CaV2FeF14,"['Ba', 'Ca', 'V', 'Fe', 'F']",40.0,-237.62860455,0.008358169149413008,0.0,
25806,Ba2Ca1O6W1,mp-19098,Ba2CaWO6,"['Ba', 'Ca', 'W', 'O']",10.0,-70.25681173,0.0,0.0,
14973,Ba2Cd1,mp-8093,Ba2Cd,"['Ba', 'Cd']",3.0,-5.47420027,0.004331899542643347,0.0,
12125,B6Ba2Cd1O12,mp-1190588,Ba2Cd(BO2)6,"['Ba', 'Cd', 'B', 'O']",21.0,-156.81039976,0.00034067595610132173,0.0,
16082,B2Ba2Cd1O6,mp-1102943,Ba2Cd(BO3)2,"['Ba', 'Cd', 'B', 'O']",11.0,-74.69397058,0.0017929799431826154,0.0,
4049,Ba4Cd4Sb6,mp-1104804,Ba2Cd2Sb3,"['Ba', 'Cd', 'Sb']",14.0,-45.79621885,0.003888843477957593,0.0,
3322,Ba4Bi8Cd6,mp-568744,Ba2Cd3Bi4,"['Ba', 'Cd', 'Bi']",18.0,-52.70569723,0.01637812833550356,0.0,
5836,As4Ba4Cd2,mp-1079666,Ba2CdAs2,"['Ba', 'Cd', 'As']",10.0,-37.58343815,0.002119899599609454,0.0,
14262,Ba2Cd1Mo1O6,mp-1207118,Ba2CdMoO6,"['Ba', 'Cd', 'Mo', 'O']",10.0,-62.70057366,0.003920044888672258,0.0,
20271,Ba2Cd1O6Os1,mp-1206134,Ba2CdOsO6,"['Ba', 'Cd', 'Os', 'O']",10.0,-63.82256515,0.00012737782216820648,0.0,
5290,Ba4Cd2H12O32P8,mp-1199629,Ba2CdP4(H3O8)2,"['Ba', 'Cd', 'P', 'H', 'O']",58.0,-368.86558479,0.0015131486570343355,0.0,
1784,Ba2Cd1Pb1,mp-867333,Ba2CdPb,"['Ba', 'Cd', 'Pb']",4.0,-10.42438462,0.004272335219116297,0.0,
7134,Ba2Cd1O6Re1,mp-551702,Ba2CdReO6,"['Ba', 'Cd', 'Re', 'O']",10.0,-67.43483863,0.03396877319335978,0.0,
29736,Ba8Cd4S12,mp-18309,Ba2CdS3,"['Ba', 'Cd', 'S']",24.0,-107.1950194,0.0,0.0,
22526,Ba4C6Ce2F2O18,mp-6850,Ba2CeC3O9F,"['Ba', 'Ce', 'C', 'O', 'F']",32.0,-244.73415887,0.006122060280965513,0.0,
19579,Ba2Ce1O6Pa1,mp-1205643,Ba2CePaO6,"['Ba', 'Ce', 'Pa', 'O']",10.0,-81.28868808,0.009742399559371506,0.0,
16285,Ba2Ce1O6Pb1,mp-1228392,Ba2CePbO6,"['Ba', 'Ce', 'Pb', 'O']",10.0,-67.79165368,-2.5757174171303632e-14,0.0,
12262,Ba2Ce1O6Pt1,mp-21879,Ba2CePtO6,"['Ba', 'Ce', 'Pt', 'O']",10.0,-69.41721987,0.0,0.0,
30448,Ba2Ce1O6Sn1,mp-1521094,Ba2CeSnO6,"['Ba', 'Ce', 'Sn', 'O']",10.0,-70.5071288,0.0,-2.6645352591003757e-14,
19487,Ba2Ce1O6Ta1,mp-1078874,Ba2CeTaO6,"['Ba', 'Ce', 'Ta', 'O']",10.0,-82.04854019,0.00032650468164163726,0.0,
4896,Ba8Co4Ge8O28,mp-1190827,Ba2CoGe2O7,"['Ba', 'Co', 'Ge', 'O']",48.0,-313.2207675,0.0,0.0,
3754,Ba4Co2Mo2O12,mp-18967,Ba2CoMoO6,"['Ba', 'Co', 'Mo', 'O']",20.0,-134.35127584,0.0,0.0,
29524,Ba8Co4O16,mp-16887,Ba2CoO4,"['Ba', 'Co', 'O']",28.0,-170.71999184,0.0,-6.217248937900877e-15,
19252,Ba8Cl8Co4O24Se8,mp-562762,Ba2CoSe2(ClO3)2,"['Ba', 'Co', 'Se', 'Cl', 'O']",52.0,-286.26605726,0.0,0.0,
17328,Ba4Co2O14Si4,mp-510015,Ba2CoSi2O7,"['Ba', 'Co', 'Si', 'O']",24.0,-173.44712059,-1.4210854715202004e-14,0.0,
21899,Ba4Co2O12W2,mp-22112,Ba2CoWO6,"['Ba', 'Co', 'W', 'O']",20.0,-138.36153819,0.0,2.842170943040401e-14,
27153,Ba4Cr2Mo2O12,mp-1079901,Ba2CrMoO6,"['Ba', 'Cr', 'Mo', 'O']",20.0,-142.6069689,0.0,0.0,
9306,Ba8Cr4N12,mp-1029843,Ba2CrN3,"['Ba', 'Cr', 'N']",24.0,-173.32171908,0.014927249297958411,0.0,
29322,Ba8Cr4O16,mp-17520,Ba2CrO4,"['Ba', 'Cr', 'O']",28.0,-190.63640032,-1.3322676295501878e-14,-1.3322676295501878e-14,
608,Ba8Cu4O72P24,mp-558012,Ba2Cu(PO3)6,"['Ba', 'Cu', 'P', 'O']",108.0,-764.35680701,2.7634202834470045e-05,0.0,
12349,Ba2Cu1O8P2,mp-9372,Ba2Cu(PO4)2,"['Ba', 'Cu', 'P', 'O']",13.0,-90.22737548,3.916173227125341e-05,1.3322676295501878e-14,
5297,Ba8Cu8O20,mp-772788,Ba2Cu2O5,"['Ba', 'Cu', 'O']",36.0,-202.70875503,0.009552167406684298,0.0,
31840,Ba2Br2Cu3O4,mp-23129,Ba2Cu3(BrO2)2,"['Ba', 'Cu', 'Br', 'O']",11.0,-55.08216744,0.005367901406249764,-3.8191672047105385e-14,
2221,Ba2Cl2Cu3O4,mp-23085,Ba2Cu3(ClO2)2,"['Ba', 'Cu', 'Cl', 'O']",11.0,-56.46061555,0.0037409405838895182,0.0,
4153,Ba4Cu6P8,mp-28661,Ba2Cu3P4,"['Ba', 'Cu', 'P']",18.0,-86.25481282,0.0014653413802179216,0.0,
17258,Ba4Cu10F28,mp-29457,Ba2Cu5F14,"['Ba', 'Cu', 'F']",42.0,-194.44253096,0.0,8.881784197001252e-15,
23846,Ba2Br1Cu1O2,mp-552934,Ba2CuBrO2,"['Ba', 'Cu', 'Br', 'O']",6.0,-31.75729986,0.0003335529964196837,0.0,
11596,Ba2Cl1Cu1O2,mp-551456,Ba2CuClO2,"['Ba', 'Cu', 'Cl', 'O']",6.0,-32.39226905,0.0001028379801422119,0.0,
31333,Ba4Cu2F12,mp-3879,Ba2CuF6,"['Ba', 'Cu', 'F']",18.0,-94.34720396,0.008651781953124882,0.0,
7191,Ba8Cu4I4O8,mp-561179,Ba2CuIO2,"['Ba', 'Cu', 'I', 'O']",24.0,-123.95937486,7.627943359445055e-05,0.0,
9675,Ba4Cu2F28Mo4,mp-1045817,Ba2CuMo2F14,"['Ba', 'Cu', 'Mo', 'F']",38.0,-203.50810959,0.0035780840059622676,0.0,
8584,Ba2Cu1O3,mp-8790,Ba2CuO3,"['Ba', 'Cu', 'O']",6.0,-34.43748617,2.7237861328188728e-05,0.0,
21022,Ba4Cu2O12Te2,mp-560502,Ba2CuTeO6,"['Ba', 'Cu', 'Te', 'O']",20.0,-116.84388441,0.018907285542481667,0.0,
25338,Ba2Cu4Dy1O8,mp-6691,Ba2Dy(CuO2)4,"['Ba', 'Dy', 'Cu', 'O']",15.0,-89.84357728,0.0,0.0,
2132,Ba8Bi4Dy4O24,mp-1516815,Ba2DyBiO6,"['Ba', 'Dy', 'Bi', 'O']",40.0,-264.76061144,0.00591697718359363,0.0,
3011,Ba8Cl28Dy4,mp-1214746,Ba2DyCl7,"['Ba', 'Dy', 'Cl']",40.0,-183.2091122,0.008836254448244318,0.0,
19668,Ba2Dy1Mo1O6,mp-1206026,Ba2DyMoO6,"['Ba', 'Dy', 'Mo', 'O']",10.0,-72.03153723,0.04030458388476532,0.0,
3822,Ba2Dy1Nb1O6,mp-12640,Ba2DyNbO6,"['Ba', 'Dy', 'Nb', 'O']",10.0,-78.70941384,0.0025916482265628815,0.0,
2735,Ba2Dy1O6Pa1,mp-1205636,Ba2DyPaO6,"['Ba', 'Dy', 'Pa', 'O']",10.0,-80.98481374,0.0,0.0,
19761,Ba2Dy1O6Re1,mp-13932,Ba2DyReO6,"['Ba', 'Dy', 'Re', 'O']",10.0,-76.88670627,0.0,-2.842170943040401e-14,
3130,Ba2Dy1O6Sb1,mp-6192,Ba2DySbO6,"['Ba', 'Dy', 'Sb', 'O']",10.0,-69.07368041,0.0,0.0,
26187,Ba2Dy1O6Ta1,mp-1206435,Ba2DyTaO6,"['Ba', 'Dy', 'Ta', 'O']",10.0,-81.68494461,0.0014840363144532631,0.0,
19934,Ba2Dy1O6U1,mp-1205693,Ba2DyUO6,"['Ba', 'Dy', 'U', 'O']",10.0,-81.87556791,0.019380782242187422,0.0,
15090,Ba2Cu4Er1O8,mp-6583,Ba2Er(CuO2)4,"['Ba', 'Er', 'Cu', 'O']",15.0,-89.84545691,0.0,0.0,
23982,Ba2Er1Mo1O6,mp-1205628,Ba2ErMoO6,"['Ba', 'Er', 'Mo', 'O']",10.0,-72.17991485,0.03936300108398427,0.0,
26907,Ba2Er1Nb1O6,mp-6653,Ba2ErNbO6,"['Ba', 'Er', 'Nb', 'O']",10.0,-78.87204884,0.0010429614589835268,0.0,
7302,Ba2Er1O6Pa1,mp-1205790,Ba2ErPaO6,"['Ba', 'Er', 'Pa', 'O']",10.0,-81.14772167,0.0,0.0,
1941,Ba2Er1O6Re1,mp-1205977,Ba2ErReO6,"['Ba', 'Er', 'Re', 'O']",10.0,-77.0234191,1.4210854715202004e-14,0.0,
30024,Ba2Er1O6Ru1,mp-6621,Ba2ErRuO6,"['Ba', 'Er', 'Ru', 'O']",10.0,-71.90158978,2.319607421696901e-06,0.0,
2497,Ba2Er1O6Sb1,mp-6231,Ba2ErSbO6,"['Ba', 'Er', 'Sb', 'O']",10.0,-69.18771915,0.0,0.0,
25695,Ba2Er1O6Ta1,mp-1205803,Ba2ErTaO6,"['Ba', 'Er', 'Ta', 'O']",10.0,-81.84409353,0.00034270388476542735,0.0,
17633,Ba2Er1O6U1,mp-1206292,Ba2ErUO6,"['Ba', 'Er', 'U', 'O']",10.0,-82.03558887,0.015188988976563067,0.0,
8878,Ba2Cu4Eu1O8,mp-1214709,Ba2Eu(CuO2)4,"['Ba', 'Eu', 'Cu', 'O']",15.0,-93.66742595,0.0016402861946627212,0.0,
11518,Ba2Eu3Si7,mp-1102914,Ba2Eu3Si7,"['Ba', 'Eu', 'Si']",12.0,-78.71946923,0.017463374510090723,0.0,
18338,Ba8Bi4Eu4O24,mp-1518502,Ba2EuBiO6,"['Ba', 'Eu', 'Bi', 'O']",40.0,-278.22050147,0.02413774401171853,0.0,
22371,Ba2Eu1Mo1O6,mp-1205758,Ba2EuMoO6,"['Ba', 'Eu', 'Mo', 'O']",10.0,-76.02201782,0.0199735659003899,0.0,
18869,Ba2Eu1Nb1O6,mp-13323,Ba2EuNbO6,"['Ba', 'Eu', 'Nb', 'O']",10.0,-81.98443599,0.023526170287102133,0.0,
13443,Ba2Eu1O6Re1,mp-504674,Ba2EuReO6,"['Ba', 'Eu', 'Re', 'O']",10.0,-81.03520389,0.012477090248045997,0.0,
15998,Ba2Eu1O6Ru1,mp-1205665,Ba2EuRuO6,"['Ba', 'Eu', 'Ru', 'O']",10.0,-75.20465236,0.020912950035156364,0.0,
5216,Ba2Eu1O6Sb1,mp-21370,Ba2EuSbO6,"['Ba', 'Eu', 'Sb', 'O']",10.0,-72.3382855,0.023739211230469515,0.0,
11179,Ba2Eu1O6Ta1,mp-21348,Ba2EuTaO6,"['Ba', 'Eu', 'Ta', 'O']",10.0,-84.8858028,0.028333489531251033,-6.394884621840902e-14,
11382,Ba8Eu4O24W4,mp-1518337,Ba2EuWO6,"['Ba', 'Eu', 'W', 'O']",40.0,-311.30220846,0.02148888640039104,0.0,
31351,Ba4Cu2F28Fe4,mp-1361380,Ba2Fe2CuF14,"['Ba', 'Fe', 'Cu', 'F']",38.0,-187.84554688,0.04747461034094247,0.0,
27358,Ba28Fe28O70,mp-1196071,Ba2Fe2O5,"['Ba', 'Fe', 'O']",126.0,-815.70553975,0.0004439410187186965,0.0,
4475,Ba2Fe3H1O22P6,mp-735530,Ba2Fe3P6HO22,"['Ba', 'Fe', 'P', 'H', 'O']",34.0,-241.48920489,0.0005406621277579404,0.0,
11250,Ba8Fe4Ge8O28,mp-1190820,Ba2FeGe2O7,"['Ba', 'Fe', 'Ge', 'O']",48.0,-318.09287258,0.0,0.0,
15390,Ba4Fe2Mo2O12,mp-1288978,Ba2FeMoO6,"['Ba', 'Fe', 'Mo', 'O']",20.0,-136.54498662,0.0,0.0,
31608,Ba8Fe4O16,mp-542120,Ba2FeO4,"['Ba', 'Fe', 'O']",28.0,-175.3755957,0.01333312127511288,1.2434497875801753e-14,
9740,Ba4Fe2O12W2,mp-18845,Ba2FeWO6,"['Ba', 'Fe', 'W', 'O']",20.0,-141.07915273,0.0,-2.842170943040401e-14,
28611,Ba8Ga8S20,mp-18421,Ba2Ga2S5,"['Ba', 'Ga', 'S']",36.0,-172.31542586,0.0015406237282800106,0.0,
9321,As4Ba8Ga4Se20,mp-1195309,Ba2GaAsSe5,"['Ba', 'Ga', 'As', 'Se']",36.0,-158.42675864,0.0,0.0,
26690,Ba8Bi4Ga4S20,mp-1201906,Ba2GaBiS5,"['Ba', 'Ga', 'Bi', 'S']",36.0,-172.33274806,0.00011480676432285009,0.0,
28277,Ba8Bi4Ga4Se20,mp-1203584,Ba2GaBiSe5,"['Ba', 'Ga', 'Bi', 'Se']",36.0,-157.26677338,0.00012160397352456442,0.0,
21570,Ba16Ga8S32,mp-1199702,Ba2GaS4,"['Ba', 'Ga', 'S']",56.0,-271.94092518,0.0,8.881784197001252e-15,
3360,Ba8Ga4S20Sb4,mp-1203806,Ba2GaSbS5,"['Ba', 'Ga', 'Sb', 'S']",36.0,-172.87542581,7.160361219682443e-05,0.0,
17123,Ba8Ga4Sb4Se20,mp-1203387,Ba2GaSbSe5,"['Ba', 'Ga', 'Sb', 'Se']",36.0,-157.63353316,0.0,0.0,
6970,Ba4Gd4O26Si8,mp-1202971,Ba2Gd2Si4O13,"['Ba', 'Gd', 'Si', 'O']",42.0,-366.47873566,0.0010190259368823007,-6.572520305780927e-14,
23139,B4Ba4Cl2Gd2O12,mp-866304,Ba2GdB2ClO6,"['Ba', 'Gd', 'B', 'Cl', 'O']",24.0,-195.39451166,0.0029654768945306387,1.5987211554602254e-14,
28193,Ba8Bi4Gd4O24,mp-1520715,Ba2GdBiO6,"['Ba', 'Gd', 'Bi', 'O']",40.0,-301.35835263,0.0,0.0,
2953,Ba8C8F12Gd4O24,mp-8986,Ba2GdC2(O2F)3,"['Ba', 'Gd', 'C', 'O', 'F']",56.0,-443.79577764,0.0021108258342632524,0.0,
7498,Ba8Cl28Gd4,mp-29084,Ba2GdCl7,"['Ba', 'Gd', 'Cl']",40.0,-221.12776838,0.005023635653807368,-2.6645352591003757e-15,
20123,Ba2Gd1Mo1O6,mp-1079839,Ba2GdMoO6,"['Ba', 'Gd', 'Mo', 'O']",10.0,-81.52929848,0.0,0.0,
26925,Ba2Gd1Nb1O6,mp-22531,Ba2GdNbO6,"['Ba', 'Gd', 'Nb', 'O']",10.0,-87.82070486,0.004440146324217409,3.197442310920451e-14,
10860,Ba2Gd1O6Re1,mp-1207285,Ba2GdReO6,"['Ba', 'Gd', 'Re', 'O']",10.0,-86.01409401,0.000279148804686713,1.5987211554602254e-14,
11685,Ba4Gd2O12Ru2,mp-2646935,Ba2GdRuO6,"['Ba', 'Gd', 'Ru', 'O']",20.0,-161.87131482,0.0,0.0,
27932,Ba2Gd1O6Sb1,mp-753668,Ba2GdSbO6,"['Ba', 'Gd', 'Sb', 'O']",10.0,-78.177154,0.003427342919922083,0.0,
9114,Ba2Gd1O6Ta1,mp-1205549,Ba2GdTaO6,"['Ba', 'Gd', 'Ta', 'O']",10.0,-90.7855363,0.0035189835253905954,0.0,
15743,Ba8Ge8Se20,mp-18335,Ba2Ge2Se5,"['Ba', 'Ge', 'Se']",36.0,-162.73079632,0.0,0.0,
23813,Ba8Ge8Te20,mp-17885,Ba2Ge2Te5,"['Ba', 'Ge', 'Te']",36.0,-145.89358223,0.0,0.0,
2272,Ba4Ge8Pd10,mp-1191488,Ba2Ge4Pd5,"['Ba', 'Ge', 'Pd']",22.0,-111.36001185,0.0,0.0,
21467,Ba4Ge10Ir8,mp-1190188,Ba2Ge5Ir4,"['Ba', 'Ge', 'Ir']",22.0,-137.13543952,0.0,0.0,
18021,As8Ba8Ge4,mp-8195,Ba2GeAs2,"['Ba', 'Ge', 'As']",20.0,-88.99157747,0.0,0.0,
8291,Ba24Ge12O48,mp-780263,Ba2GeO4,"['Ba', 'Ge', 'O']",84.0,-546.01023194,-1.2434497875801753e-14,-1.2434497875801753e-14,
29287,Ba8Ge4S16,mp-540805,Ba2GeS4,"['Ba', 'Ge', 'S']",28.0,-140.12268238,0.007234932787388182,-9.769962616701378e-15,
20436,Ba4Ge2Se8,mp-11902,Ba2GeSe4,"['Ba', 'Ge', 'Se']",14.0,-63.83954427,0.0,0.0,
17533,Ba2H2O34Pd1S10,mp-1195529,Ba2H2Pd(S5O17)2,"['Ba', 'H', 'Pd', 'S', 'O']",49.0,-293.45922363,0.00045540702489610396,0.0,
5993,Ba2H3I1,mp-1018651,Ba2H3I,"['Ba', 'H', 'I']",6.0,-20.71520003,0.00011234241210944518,0.0,
18273,Ba2H6Os1,mp-697044,Ba2H6Os,"['Ba', 'H', 'Os']",9.0,-40.09792439,0.0,0.0,
27417,Ba4H12Pt2,mp-643253,Ba2H6Pt,"['Ba', 'H', 'Pt']",18.0,-70.25922504,0.00019872689019084788,0.0,
1795,Ba2H6Ru1,mp-697038,Ba2H6Ru,"['Ba', 'H', 'Ru']",9.0,-38.27255686,0.00012215444444407808,0.0,
16763,Ba8H32O32Pt4,mp-1200998,Ba2H8PtO8,"['Ba', 'H', 'Pt', 'O']",76.0,-412.08199272,0.0003238680191195442,0.0,
8895,Ba2Hf1O4,mp-754363,Ba2HfO4,"['Ba', 'Hf', 'O']",7.0,-55.59350598,0.0001668964815841889,0.0,
29795,Ba2Hf1S4,mp-9321,Ba2HfS4,"['Ba', 'Hf', 'S']",7.0,-43.79104369,1.1546319456101628e-14,0.0,
21076,Ba2Hg1,mp-8094,Ba2Hg,"['Ba', 'Hg']",3.0,-5.2936028,0.0034062545735675798,0.0,
10920,Ba2Hg3O14Pd7,mp-557269,Ba2Hg3(PdO2)7,"['Ba', 'Hg', 'Pd', 'O']",26.0,-131.81049352,0.0017032615504817272,9.769962616701378e-15,
26631,Ba2Hg1Pb1,mp-866106,Ba2HgPb,"['Ba', 'Hg', 'Pb']",4.0,-10.22342378,0.0014276949078371182,0.0,
15546,Ba8Hg4S20,mp-1194545,Ba2HgS5,"['Ba', 'Hg', 'S']",32.0,-135.57849358,6.517636352487699e-05,0.0,
7531,Ba2Cu4Ho1O8,mp-6205,Ba2Ho(CuO2)4,"['Ba', 'Ho', 'Cu', 'O']",15.0,-89.84060384,0.0,0.0,
809,B4Ba4Cl2Ho2O12,mp-558195,Ba2HoB2ClO6,"['Ba', 'Ho', 'B', 'Cl', 'O']",24.0,-177.10679463,7.70259114535321e-06,1.4210854715202004e-14,
8935,Ba2Ho1Mo1O6,mp-1205837,Ba2HoMoO6,"['Ba', 'Ho', 'Mo', 'O']",10.0,-72.10548908,0.03969269356250038,0.0,
6875,Ba2Ho1Nb1O6,mp-12641,Ba2HoNbO6,"['Ba', 'Ho', 'Nb', 'O']",10.0,-78.79020755,0.0016816192675772612,0.0,
30027,Ba2Ho1O6Pa1,mp-1205699,Ba2HoPaO6,"['Ba', 'Ho', 'Pa', 'O']",10.0,-81.0653044,0.0,0.0,
13717,Ba2Ho1O6Re1,mp-13933,Ba2HoReO6,"['Ba', 'Ho', 'Re', 'O']",10.0,-76.95359984,4.270765039038338e-05,0.0,
25384,Ba2Ho1O6Ru1,mp-6609,Ba2HoRuO6,"['Ba', 'Ho', 'Ru', 'O']",10.0,-71.83554327,0.0,0.0,
22570,Ba2Ho1O6Sb1,mp-6687,Ba2HoSbO6,"['Ba', 'Ho', 'Sb', 'O']",10.0,-69.12921878,0.0,0.0,
24837,Ba2Ho1O6Ta1,mp-13000,Ba2HoTaO6,"['Ba', 'Ho', 'Ta', 'O']",10.0,-81.77172012,0.0,0.0,
20414,Ba2Ho1O6U1,mp-1205585,Ba2HoUO6,"['Ba', 'Ho', 'U', 'O']",10.0,-81.95528099,0.0002858170156248008,0.0,
20871,Ba4I4O2,mp-551835,Ba2I2O,"['Ba', 'I', 'O']",10.0,-45.54598251,9.872470800775801e-05,0.0,
13378,Ba4In26Ir8,mp-684013,Ba2In13Ir4,"['Ba', 'In', 'Ir']",38.0,-161.47348828,0.004717163118832524,0.0,
19048,Ba4In4O10,mp-20546,Ba2In2O5,"['Ba', 'In', 'O']",18.0,-104.92525891,3.722472656253473e-05,0.0,
9557,Ba16In16S40,mp-22841,Ba2In2S5,"['Ba', 'In', 'S']",72.0,-334.15894863,0.00014343740342948053,0.0,
27807,Ba8In8O40S4Si12,mp-1194952,Ba2In2Si3SO10,"['Ba', 'In', 'Si', 'S', 'O']",72.0,-495.47437175,0.000314471137152772,0.0,
19225,Ba8Bi4In4O24,mp-1523085,Ba2InBiO6,"['Ba', 'In', 'Bi', 'O']",40.0,-235.62835622,0.0016580500664060693,0.0,
15451,Ba4Bi2In2S10,mp-864638,Ba2InBiS5,"['Ba', 'In', 'Bi', 'S']",18.0,-84.68390366,0.0010054776833765544,0.0,
2124,Ba4Bi2In2Se10,mp-1105202,Ba2InBiSe5,"['Ba', 'In', 'Bi', 'Se']",18.0,-77.6756882,0.00025870270182348776,0.0,
10372,Ba4Br2In2O6,mp-555212,Ba2InBrO3,"['Ba', 'In', 'Br', 'O']",14.0,-76.82458105,7.620272739927714e-05,0.0,
6750,Ba4Cl2In2O6,mp-558243,Ba2InClO3,"['Ba', 'In', 'Cl', 'O']",14.0,-78.27539811,4.260976562697749e-06,0.0,
21915,Ba2Cu1In1O4,mp-1228360,Ba2InCuO4,"['Ba', 'In', 'Cu', 'O']",8.0,-45.54216888,0.0001739116293340004,0.0,
22212,Ba4Ga2In2O10,mp-1106089,Ba2InGaO5,"['Ba', 'In', 'Ga', 'O']",18.0,-108.13264159,0.00024319183159615676,0.0,
9709,Ba6In3Ir3O18,mp-638553,Ba2InIrO6,"['Ba', 'In', 'Ir', 'O']",30.0,-188.6401172,0.02524178461032367,0.0,
15061,Ba4F2In2O6,mp-19956,Ba2InO3F,"['Ba', 'In', 'O', 'F']",14.0,-81.78915008,0.0,0.0,
11072,Ba2In1O6Os1,mp-1207040,Ba2InOsO6,"['Ba', 'In', 'Os', 'O']",10.0,-66.58779681,0.0076664633395004955,0.0,
21357,Ba6In3O18Ru3,mp-616601,Ba2InRuO6,"['Ba', 'In', 'Ru', 'O']",30.0,-192.80359001,0.017384973706380258,-6.217248937900877e-15,
18860,Ba2In1O6Sb1,mp-1206536,Ba2InSbO6,"['Ba', 'In', 'Sb', 'O']",10.0,-61.64928483,0.0003663290117188467,0.0,
42,Ba4In2Sb2Se10,mp-1189339,Ba2InSbSe5,"['Ba', 'In', 'Sb', 'Se']",18.0,-77.44220396,0.000717388206610714,0.0,
17765,Ba8F4La12O48Si12,mp-686674,Ba2La3Si3O12F,"['Ba', 'La', 'Si', 'O', 'F']",84.0,-658.72179875,0.0017784723772340527,0.0,
188,Ag5Ba2La1S6,mp-553874,Ba2LaAg5S6,"['Ba', 'La', 'Ag', 'S']",14.0,-62.58357881,4.951597795077589e-05,0.0,
20368,Ba2Bi1La1O6,mp-1078409,Ba2LaBiO6,"['Ba', 'La', 'Bi', 'O']",10.0,-66.11147214,-3.552713678800501e-15,0.0,