,Composition,MaterialId,Reduced Formula,Elements,NSites,Corrected Energy,Decomposition Energy Per Atom All,Decomposition Energy Per Atom MP,Directory
8220,As2Eu1Zn2,mp-1017559,Eu(ZnAs)2,"['Eu', 'Zn', 'As']",5.0,-25.52058298,0.009527050240231816,0.0,
23531,Eu1Ga2Zn2,mp-1225416,Eu(ZnGa)2,"['Eu', 'Zn', 'Ga']",5.0,-20.78548441,0.017107545545719915,0.0,
177,Eu1P2Zn2,mp-1069383,Eu(ZnP)2,"['Eu', 'Zn', 'P']",5.0,-27.22312077,0.01173876103906224,0.0,
12789,Eu1Sb2Zn2,mp-1069042,Eu(ZnSb)2,"['Eu', 'Zn', 'Sb']",5.0,-23.46352731,0.012128678014648564,0.0,
17767,Eu1Si2Zn2,mp-22133,Eu(ZnSi)2,"['Eu', 'Zn', 'Si']",5.0,-25.48831381,0.012599878380859408,0.0,
23821,Eu11Sb12Zn6,mp-1193786,Eu11(ZnSb2)6,"['Eu', 'Zn', 'Sb']",29.0,-191.67770669,0.08153658655845852,-8.881784197001252e-16,
8959,Eu32Sb22,mp-1227931,Eu16Sb11,"['Eu', 'Sb']",54.0,-474.7772748,0.0625234405255366,0.0,
29935,Al6Au12Eu4,mp-1190659,Eu2(AlAu2)3,"['Eu', 'Al', 'Au']",22.0,-117.46972503,0.010721449719459208,4.440892098500626e-15,
14214,Cu5Eu2Ni5,mp-1225966,Eu2(CuNi)5,"['Eu', 'Cu', 'Ni']",12.0,-71.71572621,0.015046967953276535,-2.6645352591003757e-15,
18804,Eu4Ga18Ir6,mp-542930,Eu2(Ga3Ir)3,"['Eu', 'Ga', 'Ir']",28.0,-165.4822253,0.011592801088168514,-2.6645352591003757e-15,
11323,Eu4Ga18Rh6,mp-645591,Eu2(Ga3Rh)3,"['Eu', 'Ga', 'Rh']",28.0,-157.59219504,0.011901259208983994,0.0,
8562,Eu4Mo6O24,mp-542905,Eu2(MoO4)3,"['Eu', 'Mo', 'O']",34.0,-269.9557015,0.02983013925453548,0.0,
15667,Eu2Ni5Zn5,mp-1225527,Eu2(ZnNi)5,"['Eu', 'Zn', 'Ni']",12.0,-59.22704855,0.01906286395670609,0.0,
15222,Ag1Eu2Pb1,mp-1184199,Eu2AgPb,"['Eu', 'Ag', 'Pb']",4.0,-28.91174479,0.025518487711181592,0.0,
4934,Ag1Eu2Sn1,mp-1183890,Eu2AgSn,"['Eu', 'Ag', 'Sn']",4.0,-29.50521654,0.028000369394531432,0.0,
28034,Al6Au2Eu2Si3,mp-1225642,Eu2Al6Si3Au2,"['Eu', 'Al', 'Si', 'Au']",13.0,-71.69452912,0.0,0.0,
16447,As7Eu2Pd12,mp-1226033,Eu2As7Pd12,"['Eu', 'As', 'Pd']",21.0,-128.00353472,0.006491778121279879,0.0,
25744,B8Eu8O20,mp-1212596,Eu2B2O5,"['Eu', 'B', 'O']",36.0,-334.0938736,0.006134567154946424,-3.375077994860476e-14,
25738,B4Eu2Rh5,mp-570529,Eu2B4Rh5,"['Eu', 'B', 'Rh']",11.0,-90.91919875,0.015936266424006362,0.0,
12656,B20Br4Eu8O36,mp-558834,Eu2B5BrO9,"['Eu', 'B', 'Br', 'O']",68.0,-577.04165134,0.00326562539981623,-1.5987211554602254e-14,
19510,B20Cl4Eu8O36,mp-553918,Eu2B5ClO9,"['Eu', 'B', 'Cl', 'O']",68.0,-580.00206202,0.0031397416636185227,-1.7763568394002505e-15,
24825,B5Eu2Os3,mp-582389,Eu2B5Os3,"['Eu', 'B', 'Os']",10.0,-91.55792582,0.016704976593750587,0.0,
6504,B1Br1Eu2N2,mp-1077381,Eu2BBrN2,"['Eu', 'B', 'Br', 'N']",6.0,-53.90697874,0.011880938963216181,0.0,
17535,B4Eu8I4N8,mp-1192731,Eu2BIN2,"['Eu', 'B', 'I', 'N']",24.0,-212.61146994,0.01218742498535974,0.0,
6989,B1Eu2Pd6,mp-1225365,Eu2BPd6,"['Eu', 'B', 'Pd']",9.0,-63.74060302,0.01972383368815045,0.0,
3167,Bi4Eu8S16,mp-1193935,Eu2BiS4,"['Eu', 'Bi', 'S']",28.0,-202.70375519,0.03138840368442697,0.0,
15158,Br2Eu4O4,mp-605786,Eu2BrO2,"['Eu', 'Br', 'O']",10.0,-91.20347551,0.16974434353124934,0.0,
12426,C1Cl2Eu2N2,mp-582618,Eu2C(NCl)2,"['Eu', 'C', 'N', 'Cl']",7.0,-60.74962286,0.0067253466950329965,0.0,
2475,Cd1Eu2Hg1,mp-1183915,Eu2CdHg,"['Eu', 'Cd', 'Hg']",4.0,-23.55532697,0.027806059624023938,0.0,
14040,Cd1Eu2Pb1,mp-1183962,Eu2CdPb,"['Eu', 'Cd', 'Pb']",4.0,-27.181286,0.024260008636474595,0.0,
28728,Cd1Eu2Sn1,mp-1183888,Eu2CdSn,"['Eu', 'Cd', 'Sn']",4.0,-27.74271918,0.027257083204345278,0.0,
2512,Co12Eu2P7,mp-1191681,Eu2Co12P7,"['Eu', 'Co', 'P']",21.0,-158.36345171,0.010574942985491553,0.0,
15406,Cu4Eu8,mp-1102243,Eu2Cu,"['Eu', 'Cu']",12.0,-99.77689643,0.03637650667426229,0.0,
19146,Cu6Eu2P5,mp-1103514,Eu2Cu6P5,"['Eu', 'Cu', 'P']",13.0,-78.79483244,0.01122032894681535,0.0,
4408,Cu4Eu8S12,mp-1192020,Eu2CuS3,"['Eu', 'Cu', 'S']",24.0,-185.36593227,0.03844259055664079,0.0,
5775,Cu1Eu2Te4,mp-1225340,Eu2CuTe4,"['Eu', 'Cu', 'Te']",7.0,-44.27772357,0.016189771633649208,0.0,
4160,Eu2Fe1H6,mp-1079126,Eu2FeH6,"['Eu', 'Fe', 'H']",9.0,-53.95210578,0.010615254045139189,0.0,
12832,Eu2Fe1P3Pt7,mp-1225377,Eu2FeP3Pt7,"['Eu', 'Fe', 'P', 'Pt']",13.0,-97.80491199,0.026130647305252275,-7.105427357601002e-15,
16041,Eu4Ga6Ir2,mp-609413,Eu2Ga3Ir,"['Eu', 'Ga', 'Ir']",12.0,-84.36438541,0.023969825452474502,0.0,
11783,Ag1Eu2Ga7,mp-1225364,Eu2Ga7Ag,"['Eu', 'Ga', 'Ag']",10.0,-48.88650393,0.009041715154296526,0.0,
31382,Eu8Ge4,mp-1095642,Eu2Ge,"['Eu', 'Ge']",12.0,-107.69323436,0.001964814482420252,0.0,
2788,B8Eu8Ge4O32,mp-1019739,Eu2Ge(BO4)2,"['Eu', 'Ge', 'B', 'O']",52.0,-440.15398807,0.05229098286858225,0.0,
9714,Eu8Ge4O20,mp-648448,Eu2GeO5,"['Eu', 'Ge', 'O']",32.0,-276.31171428,0.047049929116210976,0.0,
325,Eu4H32O40S6,mp-1203361,Eu2H16S3O20,"['Eu', 'H', 'S', 'O']",82.0,-486.69104552,0.0038525392116293133,-4.440892098500626e-14,
13403,Br1Eu2H3,mp-1018691,Eu2H3Br,"['Eu', 'H', 'Br']",6.0,-38.09669863,0.012498099223633652,0.0,
26114,Eu2H6Ir1,mp-1205815,Eu2H6Ir,"['Eu', 'H', 'Ir']",9.0,-54.79076983,0.11698261735046334,0.0,
9695,Eu2H6Ru1,mp-634945,Eu2H6Ru,"['Eu', 'H', 'Ru']",9.0,-55.31862361,0.009112072575955033,0.0,
18725,Eu4Hf4Mo14O56,mp-1213558,Eu2Hf2(MoO4)7,"['Eu', 'Hf', 'Mo', 'O']",78.0,-618.95332465,0.007892973628445432,0.0,
10771,Eu4Hf4O14,mp-1191195,Eu2Hf2O7,"['Eu', 'Hf', 'O']",22.0,-221.48542084,0.04678081986150673,0.0,
14578,Eu4Ho2O12Ta2,mp-1181527,Eu2HoTaO6,"['Eu', 'Ho', 'Ta', 'O']",20.0,-196.82463257,0.007763745035155978,0.0,
10612,Eu4I4O2,mp-558258,Eu2I2O,"['Eu', 'I', 'O']",10.0,-78.20345202,0.014006085841796079,0.0,
19905,Eu8In4,mp-1095519,Eu2In,"['Eu', 'In']",12.0,-97.25823765,0.03347223583170589,-7.105427357601002e-15,
1727,Eu2Hg1In1,mp-1184056,Eu2InHg,"['Eu', 'In', 'Hg']",4.0,-25.60727975,0.029452330795288084,0.0,
18977,Eu4In2Pd4,mp-1095160,Eu2InPd2,"['Eu', 'In', 'Pd']",10.0,-74.48637287,0.02243586363476613,0.0,
434,Eu4In2Pt4,mp-1095035,Eu2InPt2,"['Eu', 'In', 'Pt']",10.0,-79.75940435,0.025823481015624594,0.0,
24481,Eu4Ir4O14,mp-641683,Eu2Ir2O7,"['Eu', 'Ir', 'O']",22.0,-184.86578113,0.05548645010121511,7.105427357601002e-15,
6794,Eu2In1Mg1,mp-1184025,Eu2MgIn,"['Eu', 'Mg', 'In']",4.0,-26.06053394,0.013148970639038637,0.0,
1455,Eu4Mg2O14Si4,mp-982662,Eu2MgSi2O7,"['Eu', 'Mg', 'Si', 'O']",24.0,-205.97349751,0.0,0.0,
12676,Eu4Ge8Mn2O24,mp-1226301,Eu2Mn(GeO3)4,"['Eu', 'Mn', 'Ge', 'O']",38.0,-288.24810053,0.0,0.0,
22825,Eu4Mn4O10,mp-1099747,Eu2Mn2O5,"['Eu', 'Mn', 'O']",18.0,-161.42434283,0.08473519972221943,0.0,
8890,Eu4Mn4O14,mp-761284,Eu2Mn2O7,"['Eu', 'Mn', 'O']",22.0,-185.77695109,0.04282468855823751,0.0,
12669,Eu4Mn2O14Sb2,mp-1225478,Eu2MnSbO7,"['Eu', 'Mn', 'Sb', 'O']",22.0,-181.66966429,0.03317089919389282,0.0,
26858,Eu4Mn2O14Si4,mp-1190662,Eu2MnSi2O7,"['Eu', 'Mn', 'Si', 'O']",24.0,-213.12678674,0.004355468881836799,0.0,
3344,Eu2Mn1O6W1,mp-1516440,Eu2MnWO6,"['Eu', 'Mn', 'W', 'O']",10.0,-88.9048831,0.10593138247350886,0.0,
16244,Eu4Mo4O14,mp-1191878,Eu2Mo2O7,"['Eu', 'Mo', 'O']",22.0,-189.65937584,0.025192821814631117,8.881784197001252e-15,
5429,Eu8Mo4O24,mp-1213281,Eu2MoO6,"['Eu', 'Mo', 'O']",36.0,-313.64545424,0.04482051210503535,0.0,
4192,Eu8N4,mp-1212961,Eu2N,"['Eu', 'N']",12.0,-124.16137491,0.07612438188964887,0.0,
12565,Eu2Nb5O9,mp-1213102,Eu2Nb5O9,"['Eu', 'Nb', 'O']",16.0,-154.69172954,0.05873176376139355,-1.7763568394002505e-15,
27205,Eu4Ni24P10,mp-1213550,Eu2Ni12P5,"['Eu', 'Ni', 'P']",38.0,-258.08981631,0.009113431552220774,0.0,
7800,Eu2Ni3Sb4,mp-1225511,Eu2Ni3Sb4,"['Eu', 'Ni', 'Sb']",9.0,-59.66298207,0.02854194057970183,0.0,
25428,Eu4Ni14P8,mp-1213320,Eu2Ni7P4,"['Eu', 'Ni', 'P']",26.0,-185.0925591,0.017177315827825446,-1.2434497875801753e-14,
20882,Eu4Ni2O12Ru2,mp-1213246,Eu2NiRuO6,"['Eu', 'Ni', 'Ru', 'O']",20.0,-163.79079159,0.03563533505078098,0.0,
7585,Eu16O24,mp-1182469,Eu2O3,"['Eu', 'O']",40.0,-393.75137679,0.0919358073007821,0.0,
21721,Eu2P3Pt4,mp-1225298,Eu2P3Pt4,"['Eu', 'P', 'Pt']",9.0,-70.05512467,0.01750327152994835,0.0,
12896,Br1Eu2P1,mp-613052,Eu2PBr,"['Eu', 'P', 'Br']",4.0,-33.90365087,0.022582483610840143,0.0,
23519,Cl1Eu2P1,mp-1225319,Eu2PCl,"['Eu', 'P', 'Cl']",4.0,-34.27796672,0.07918670287353535,0.0,
13247,Eu2I1P1,mp-569689,Eu2PI,"['Eu', 'P', 'I']",4.0,-33.2012844,0.022448469396973536,0.0,
29441,Eu4O14Pb4,mp-756670,Eu2Pb2O7,"['Eu', 'Pb', 'O']",22.0,-163.16162425,0.0873420912901004,0.0,
23941,Eu4O14Pt4,mp-1191889,Eu2Pt2O7,"['Eu', 'Pt', 'O']",22.0,-170.93946443,0.03688258161754021,0.0,
8975,Eu4O14Ru4,mp-637431,Eu2Ru2O7,"['Eu', 'Ru', 'O']",22.0,-188.59795643,0.05740431310725391,8.881784197001252e-15,
26693,Eu2O2S1,mp-21071,Eu2SO2,"['Eu', 'S', 'O']",5.0,-46.85717377,0.11050216935045931,0.0,
3376,Eu4O12S2,mp-542297,Eu2SO6,"['Eu', 'S', 'O']",18.0,-149.64505972,0.050446897879774966,0.0,
5612,Eu16Sb24,mp-1199270,Eu2Sb3,"['Eu', 'Sb']",40.0,-296.6232559,0.020890965781253712,0.0,
26554,Au1Eu2Sb1,mp-1184372,Eu2SbAu,"['Eu', 'Sb', 'Au']",4.0,-31.73762276,0.03686361745442923,0.0,
14184,Eu2O2Se1,mp-754655,Eu2SeO2,"['Eu', 'Se', 'O']",5.0,-46.09588486,0.10537934949832106,0.0,
18507,Eu8Si4,mp-1102477,Eu2Si,"['Eu', 'Si']",12.0,-109.20952728,0.039705883676214526,0.0,
10178,Ag4Eu8Si12,mp-1191372,Eu2Si3Ag,"['Eu', 'Si', 'Ag']",24.0,-171.23165472,0.025467730375976494,0.0,
6823,Eu8Ni32Si12,mp-1202253,Eu2Si3Ni8,"['Eu', 'Si', 'Ni']",52.0,-360.12053189,0.013841333846153603,0.0,
7100,Eu4Pd2Si6,mp-22765,Eu2Si3Pd,"['Eu', 'Si', 'Pd']",12.0,-92.90615149,0.025675399718424252,0.0,
17518,Eu4Pt6Si10,mp-1105156,Eu2Si5Pt3,"['Eu', 'Si', 'Pt']",20.0,-149.48912399,0.01682874312695315,0.0,
16948,Cl8Eu8O12Si4,mp-555322,Eu2SiCl2O3,"['Eu', 'Si', 'Cl', 'O']",32.0,-266.03844294,0.005197042219238668,0.0,
28554,Eu8N12Si4,mp-1191010,Eu2SiN3,"['Eu', 'Si', 'N']",24.0,-232.22750356,0.04108325620768305,-1.7763568394002505e-15,
28512,Eu8O16Si4,mp-554546,Eu2SiO4,"['Eu', 'Si', 'O']",28.0,-265.99705554,0.007642068116609835,0.0,
11352,Eu8O20Si4,mp-867966,Eu2SiO5,"['Eu', 'Si', 'O']",32.0,-293.96084402,0.05908083262695207,0.0,
11946,Eu4S8Si2,mp-22504,Eu2SiS4,"['Eu', 'Si', 'S']",14.0,-106.44434104,0.012474933736048577,0.0,
13914,Eu8Sn4,mp-1213070,Eu2Sn,"['Eu', 'Sn']",12.0,-105.72741468,0.03200423117513118,0.0,
3563,Eu4O14Sn4,mp-505306,Eu2Sn2O7,"['Eu', 'Sn', 'O']",22.0,-175.59492734,0.04373487565873546,0.0,
1291,Au4Eu4Sn10,mp-31293,Eu2Sn5Au2,"['Eu', 'Sn', 'Au']",18.0,-103.73369549,0.01170097551757543,0.0,
7563,Eu2Hg1Sn1,mp-867477,Eu2SnHg,"['Eu', 'Sn', 'Hg']",4.0,-27.50687521,0.024408535909423712,0.0,
6610,Eu8S16Sn4,mp-632490,Eu2SnS4,"['Eu', 'Sn', 'S']",28.0,-203.35134916,0.03539239331861754,0.0,
15811,Eu4O14Ta4,mp-1191288,Eu2Ta2O7,"['Eu', 'Ta', 'O']",22.0,-224.63230348,0.007810496336999151,-5.329070518200751e-15,
9111,Al1Eu2O6Ta1,mp-1205947,Eu2TaAlO6,"['Eu', 'Ta', 'Al', 'O']",10.0,-96.1831978,0.006548396269540291,0.0,
15825,Eu4O22Te8,mp-31247,Eu2Te4O11,"['Eu', 'Te', 'O']",34.0,-229.59444487,0.06273451503311733,1.2434497875801753e-14,
11987,Eu2O2Te1,mp-19897,Eu2TeO2,"['Eu', 'Te', 'O']",5.0,-45.41508949,0.08971893824267774,0.0,
31338,Eu4O14Ti4,mp-505801,Eu2Ti2O7,"['Eu', 'Ti', 'O']",22.0,-207.38980617,0.042634037949218495,0.0,
469,Eu2O4Ti1,mp-1025200,Eu2TiO4,"['Eu', 'Ti', 'O']",7.0,-69.69683181,0.017129086085377665,0.0,
7929,Eu8O20Ti4,mp-1195915,Eu2TiO5,"['Eu', 'Ti', 'O']",32.0,-306.79471966,0.05988531702148414,0.0,
17945,Cd1Eu2Tl1,mp-1184281,Eu2TlCd,"['Eu', 'Tl', 'Cd']",4.0,-25.43226389,0.02398406488403282,0.0,
9282,Cl20Eu8Tl4,mp-1213054,Eu2TlCl5,"['Eu', 'Tl', 'Cl']",32.0,-194.14073783,0.005876791750485388,0.0,
24199,Eu2Hg1Tl1,mp-1184263,Eu2TlHg,"['Eu', 'Tl', 'Hg']",4.0,-25.18193653,0.023119383124999615,0.0,
13709,Eu2Tl1Zn1,mp-1184322,Eu2TlZn,"['Eu', 'Tl', 'Zn']",4.0,-25.54066703,0.03215635498779257,0.0,
9200,Eu2O4V1,mp-19815,Eu2VO4,"['Eu', 'V', 'O']",7.0,-66.56580628,0.006822186353234727,0.0,
8901,Eu8O24W4,mp-1213585,Eu2WO6,"['Eu', 'W', 'O']",36.0,-320.67249373,0.03694102431857793,0.0,
2858,Cu2Eu4P6Zn4,mp-1212837,Eu2Zn2CuP3,"['Eu', 'Zn', 'Cu', 'P']",16.0,-99.37164591,0.014752687113037233,-1.0658141036401503e-14,
17304,Eu4P6Zn4,mp-1104145,Eu2Zn2P3,"['Eu', 'Zn', 'P']",14.0,-90.39843088,0.018606454411448148,0.0,
8032,Eu2Ga1Zn1,mp-1184310,Eu2ZnGa,"['Eu', 'Zn', 'Ga']",4.0,-26.32049765,0.028650249517822246,0.0,
26032,Eu2In1Zn1,mp-1184464,Eu2ZnIn,"['Eu', 'Zn', 'In']",4.0,-25.99484303,0.03340303301208536,0.0,
28171,Eu4P4Zn2,mp-1078980,Eu2ZnP2,"['Eu', 'Zn', 'P']",10.0,-75.25088011,0.021587861802735198,0.0,
2916,Eu2P3Pt7Zn1,mp-1225253,Eu2ZnP3Pt7,"['Eu', 'Zn', 'P', 'Pt']",13.0,-91.59222153,0.0,0.0,
14821,Eu4O14Zr4,mp-685944,Eu2Zr2O7,"['Eu', 'Zr', 'O']",22.0,-212.65305444,0.04780590835582288,0.0,
14405,Al4Eu6P8,mp-1205409,Eu3(AlP2)2,"['Eu', 'Al', 'P']",18.0,-138.24755616,0.018180982376303056,0.0,
21373,As4Eu3Pd4,mp-612175,Eu3(AsPd)4,"['Eu', 'As', 'Pd']",11.0,-80.4980262,0.018796546182528573,0.0,
24535,As4Eu6S16,mp-559134,Eu3(AsS4)2,"['Eu', 'As', 'S']",26.0,-173.27535008,0.03950232236253548,-2.6645352591003757e-15,
16196,B6Eu3Rh8,mp-672322,Eu3(B3Rh4)2,"['Eu', 'B', 'Rh']",17.0,-140.24362335,0.016982045013786973,0.0,
10635,B4Eu6O12,mp-505346,Eu3(BO3)2,"['Eu', 'B', 'O']",22.0,-209.62637644,0.008220332494673244,0.0,
18546,Eu6Ga8Ge12,mp-1193402,Eu3(Ga2Ge3)2,"['Eu', 'Ga', 'Ge']",26.0,-152.61237213,0.0,0.0,
21082,Eu3Ga4Ni4,mp-636287,Eu3(GaNi)4,"['Eu', 'Ga', 'Ni']",11.0,-71.32379282,0.019470095198864,0.0,
21420,Eu6Ga4P8,mp-1189104,Eu3(GaP2)2,"['Eu', 'Ga', 'P']",18.0,-133.13722097,0.017991222800564977,0.0,
4881,Eu3Ge4Ir4,mp-1095238,Eu3(GeIr)4,"['Eu', 'Ge', 'Ir']",11.0,-92.23174072,0.004258409489079185,0.0,
713,Eu6In4P8,mp-1188263,Eu3(InP2)2,"['Eu', 'In', 'P']",18.0,-131.10459547,0.024763621248104606,0.0,
26058,Eu3F4S2,mp-1080739,Eu3(SF2)2,"['Eu', 'S', 'F']",9.0,-74.00183288,0.04574099456163161,0.0,
12692,As16Eu12Si8,mp-1199837,Eu3(SiAs2)2,"['Eu', 'Si', 'As']",36.0,-271.58461045,0.01691986488715269,0.0,
4612,Eu12Pd8Sn8,mp-1193516,Eu3(SnPd)2,"['Eu', 'Sn', 'Pd']",28.0,-218.83305426,0.02432357571009991,0.0,
30062,Ag4Eu6,mp-621667,Eu3Ag2,"['Eu', 'Ag']",10.0,-75.69914428,0.03208142160937566,0.0,
5017,Al2Eu3O7,mp-1212916,Eu3Al2O7,"['Eu', 'Al', 'O']",12.0,-108.79152848,0.042499244098376465,0.0,
27872,Al2Eu6O10,mp-1019729,Eu3AlO5,"['Eu', 'Al', 'O']",18.0,-171.69528397,0.055431196206043865,0.0,
18683,As8Eu6,mp-1104668,Eu3As4,"['Eu', 'As']",14.0,-113.13783377,0.04674516519740557,0.0,
12026,Au4Eu12,mp-1189094,Eu3Au,"['Eu', 'Au']",16.0,-143.76238632,0.03561806691406311,0.0,
17561,Au6Eu9,mp-1104457,Eu3Au2,"['Eu', 'Au']",15.0,-122.61223249,0.02936831821223862,0.0,
13019,Au1Eu3O6,mp-21389,Eu3AuO6,"['Eu', 'Au', 'O']",10.0,-85.1092775,0.06840896264648322,0.0,
11033,B2Eu3Pt7,mp-1102298,Eu3B2Pt7,"['Eu', 'B', 'Pt']",12.0,-96.69796734,0.01890692698893126,0.0,
16931,Dy2Eu6Sb6,mp-1225434,Eu3DySb3,"['Eu', 'Dy', 'Sb']",14.0,-110.79716994,0.022539627960379782,0.0,
21810,Eu6Ga4,mp-672286,Eu3Ga2,"['Eu', 'Ga']",10.0,-77.72788688,0.033983162585943916,0.0,
8330,Eu6Ga10,mp-1184542,Eu3Ga5,"['Eu', 'Ga']",16.0,-100.60723026,0.023591573410644884,0.0,
8790,Eu12Ga20O48,mp-1213411,Eu3Ga5O12,"['Eu', 'Ga', 'O']",80.0,-599.85275522,0.0055528064541015,0.0,
22431,Eu12Ga4P12,mp-1194348,Eu3GaP3,"['Eu', 'Ga', 'P']",28.0,-229.13880828,0.026391198600725474,0.0,
20774,Eu6Ge10,mp-1189484,Eu3Ge5,"['Eu', 'Ge']",16.0,-117.61677078,0.0,0.0,
6077,Eu3In1O1,mp-1069296,Eu3InO,"['Eu', 'In', 'O']",5.0,-45.14970273,0.051282806050780394,0.0,
24563,Eu12In4P12,mp-1193614,Eu3InP3,"['Eu', 'In', 'P']",28.0,-226.63944796,0.048171099406188134,0.0,
2014,Eu6Ir2O14,mp-17981,Eu3IrO7,"['Eu', 'Ir', 'O']",22.0,-196.46064554,0.064425996184303,0.0,
7393,Eu12Mo4O28,mp-1213342,Eu3MoO7,"['Eu', 'Mo', 'O']",44.0,-401.84860766,0.04773436958799593,0.0,
29488,Eu6Nb2O12,mp-1188621,Eu3NbO6,"['Eu', 'Nb', 'O']",20.0,-199.72318991,0.024376100203125972,-5.329070518200751e-15,
18258,Eu6Nb2O14,mp-510674,Eu3NbO7,"['Eu', 'Nb', 'O']",22.0,-212.05104902,0.07167968987571527,0.0,
1206,Eu12O16,mp-1182716,Eu3O4,"['Eu', 'O']",28.0,-281.76703638,0.18013207125000008,0.0,
9420,Eu6O14Os2,mp-561983,Eu3OsO7,"['Eu', 'Os', 'O']",22.0,-203.87141426,0.24319648538529748,0.0,
8761,Eu6P8,mp-1105092,Eu3P4,"['Eu', 'P']",14.0,-119.5185372,0.029676869049945154,0.0,
26388,Eu9Pd6,mp-1105286,Eu3Pd2,"['Eu', 'Pd']",15.0,-132.93296417,0.054842387039062857,0.0,
13750,Eu9Pt6,mp-1104698,Eu3Pt2,"['Eu', 'Pt']",15.0,-141.97117971,0.03807349296614504,0.0,
20131,Eu6O14Re2,mp-581427,Eu3ReO7,"['Eu', 'Re', 'O']",22.0,-211.29236683,0.04178910649324585,-8.881784197001252e-15,
16049,Eu12Rh4,mp-1189512,Eu3Rh,"['Eu', 'Rh']",16.0,-157.95378929,0.04628225812011699,0.0,
6640,Eu6Pb26Rh8,mp-1199220,Eu3Rh4Pb13,"['Eu', 'Rh', 'Pb']",40.0,-228.37924122,0.007250994646484266,0.0,
22348,Eu6O14Ru2,mp-22365,Eu3RuO7,"['Eu', 'Ru', 'O']",22.0,-198.23174742,0.06995943456676201,0.0,
13193,Eu6S8,mp-1103738,Eu3S4,"['Eu', 'S']",14.0,-120.70297466,0.054691847318640185,0.0,
26646,Eu12S36Sb16,mp-684111,Eu3Sb4S9,"['Eu', 'Sb', 'S']",64.0,-399.79639185,0.02997138774413699,-2.6645352591003757e-15,
5925,Eu6O24Sb10,mp-505043,Eu3Sb5O12,"['Eu', 'Sb', 'O']",40.0,-299.26688015,0.03475360849200726,-3.552713678800501e-15,
31776,Eu6O14Sb2,mp-1190831,Eu3SbO7,"['Eu', 'Sb', 'O']",22.0,-192.77129708,0.06582296653409081,0.0,
4189,Eu6Ir8Sn26,mp-1213142,Eu3Sn13Ir4,"['Eu', 'Sn', 'Ir']",40.0,-255.54765597,0.009157492961908709,-5.329070518200751e-15,
7331,Eu6Rh8Sn26,mp-1199325,Eu3Sn13Rh4,"['Eu', 'Sn', 'Rh']",40.0,-246.48417071,0.0029824784658201153,0.0,
17466,Eu6Sn10,mp-1212891,Eu3Sn5,"['Eu', 'Sn']",16.0,-111.49240722,0.022079086713866936,0.0,
26865,Eu6O14Ta2,mp-1213095,Eu3TaO7,"['Eu', 'Ta', 'O']",22.0,-217.97896211,0.06312317668501954,-1.7763568394002505e-14,
30722,Eu6Tl2,mp-867318,Eu3Tl,"['Eu', 'Tl']",8.0,-67.9676569,0.042271160891724335,0.0,
20232,As6Eu8,mp-20995,Eu4As3,"['Eu', 'As']",14.0,-127.51462251,0.14768077216517916,0.0,
9973,As14Eu8Ir16,mp-1205141,Eu4As7Ir8,"['Eu', 'As', 'Ir']",38.0,-314.94109148,0.01583726933799312,0.0,
10829,B4Cl4Eu16O28,mp-1199302,Eu4BClO7,"['Eu', 'B', 'Cl', 'O']",52.0,-476.44257329,0.07143243785757214,0.0,
16248,Bi2Eu4O1,mp-1078184,Eu4Bi2O,"['Eu', 'Bi', 'O']",7.0,-64.06456335,0.04106740161946831,0.0,
3436,Bi6Eu8,mp-1104641,Eu4Bi3,"['Eu', 'Bi']",14.0,-118.20747338,0.14082175616490034,0.0,
28205,Br12Eu8O2,mp-559031,Eu4Br6O,"['Eu', 'Br', 'O']",22.0,-160.55160812,0.00855578214311059,0.0,
2116,C16Eu32F40N32,mp-1204426,Eu4C2N4F5,"['Eu', 'C', 'N', 'F']",120.0,-1090.00635615,0.0,0.0,
30983,Cl12Eu8O2,mp-28546,Eu4Cl6O,"['Eu', 'Cl', 'O']",22.0,-169.01928679,0.008359949930753174,0.0,
26935,Eu8I12O2,mp-1191507,Eu4I6O,"['Eu', 'I', 'O']",22.0,-151.02457873,0.020243916147903995,5.062616992290714e-14,
30472,Eu8Ir2,mp-623108,Eu4Ir,"['Eu', 'Ir']",10.0,-102.71853498,0.04314894340625486,0.0,
1991,Eu4O1Sb2,mp-1078192,Eu4Sb2O,"['Eu', 'Sb', 'O']",7.0,-65.36929964,0.03050454884765763,0.0,
21502,Eu4Zn51,mp-1227723,Eu4Zn51,"['Eu', 'Zn']",55.0,-115.27827096,0.003573812135298393,0.0,
11802,Eu5S12Zr3,mp-1189832,Eu5(ZrS4)3,"['Eu', 'Zr', 'S']",20.0,-162.70373645,0.029107385263671404,0.0,
8253,As6Eu10,mp-1106024,Eu5As3,"['Eu', 'As']",16.0,-148.44099189,0.10899463224121142,0.0,
17359,B6Cl2Eu10O18,mp-1202692,Eu5B3ClO9,"['Eu', 'B', 'Cl', 'O']",36.0,-335.64892493,0.018568111753419103,-2.753353101070388e-13,
2053,Bi6Eu10,mp-1188517,Eu5Bi3,"['Eu', 'Bi']",16.0,-139.81869275,0.060189868865967,0.0,
23011,Cd4Eu10O2Sb10,mp-1193503,Eu5Cd2Sb5O,"['Eu', 'Cd', 'Sb', 'O']",26.0,-186.40961966,0.023119167599157997,0.0,
21299,Cd2Cu4Eu10,mp-1189588,Eu5CdCu2,"['Eu', 'Cd', 'Cu']",16.0,-123.67023831,0.031724702945556515,0.0,
27225,Eu10Ge6,mp-1188934,Eu5Ge3,"['Eu', 'Ge']",16.0,-140.50931317,0.00401749810302654,0.0,
16910,Eu10F2O24P6,mp-1212781,Eu5P3O12F,"['Eu', 'P', 'O', 'F']",42.0,-380.8897947,0.01239626110043801,-1.3500311979441904e-13,
25971,Eu10O26P6,mp-1212818,Eu5P3O13,"['Eu', 'P', 'O']",42.0,-385.48974583,0.014684762604165513,0.0,
3380,Eu10Pd4,mp-1104610,Eu5Pd2,"['Eu', 'Pd']",14.0,-130.17286232,0.03662577492466568,0.0,
7569,Eu10Pt4,mp-1104413,Eu5Pt2,"['Eu', 'Pt']",14.0,-136.74085224,0.04036876961774638,0.0,
1519,Eu20Pt16,mp-1196458,Eu5Pt4,"['Eu', 'Pt']",36.0,-335.19194493,0.039545142732206884,0.0,
31284,Eu10Sb6,mp-1105949,Eu5Sb3,"['Eu', 'Sb']",16.0,-143.6832864,0.028717680444337645,0.0,