,Composition,MaterialId,Reduced Formula,Elements,NSites,Corrected Energy,Decomposition Energy Per Atom All,Decomposition Energy Per Atom MP,Directory
16609,C2Er2P2Ru4,mp-1205587,ErPRu2C,"['Er', 'P', 'Ru', 'C']",10.0,-82.22814548,0.0,0.0,
15626,Er8P8S8,mp-1191596,ErPS,"['Er', 'P', 'S']",24.0,-150.09949683,0.00021585575683680247,0.0,
15332,Er8P8S32,mp-5036,ErPS4,"['Er', 'P', 'S']",48.0,-260.73963073,0.019057624969075704,0.0,
9332,Er1O4Pa1,mp-1225447,ErPaO4,"['Er', 'Pa', 'O']",6.0,-56.32134161,0.0007626298193290637,0.0,
1329,Er1Pa1Ru2,mp-867918,ErPaRu2,"['Er', 'Pa', 'Ru']",4.0,-34.39772171,0.11804999356628088,0.0,
13630,Er1Pa1Tc2,mp-863734,ErPaTc2,"['Er', 'Pa', 'Tc']",4.0,-35.56895515,0.09261209598388653,0.0,
19456,Er1Pb3,mp-388,ErPb3,"['Er', 'Pb']",4.0,-16.66041477,0.012114267857666228,0.0,
15612,Au1Er1Pb1,mp-30377,ErPbAu,"['Er', 'Pb', 'Au']",3.0,-13.5276379,-4.440892098500626e-15,0.0,
3407,Er1Pd1,mp-851,ErPd,"['Er', 'Pd']",2.0,-11.60988929,0.02397524254272465,0.0,
31107,Er1Pd3,mp-2825,ErPd3,"['Er', 'Pd']",4.0,-23.77240818,0.0014217663403321978,0.0,
8843,Er3Pb3Pd3,mp-1079880,ErPdPb,"['Er', 'Pd', 'Pb']",9.0,-46.80309301,0.00029414960503526544,0.0,
19380,Er4Pt4,mp-1025444,ErPt,"['Er', 'Pt']",8.0,-53.02786537,0.0013381292565917136,0.0,
16448,Er1Pt3,mp-1913,ErPt3,"['Er', 'Pt']",4.0,-26.95086534,2.5612174072264793e-05,0.0,
10251,Er4F28Pt4,mp-18341,ErPtF7,"['Er', 'Pt', 'F']",36.0,-188.28624037,1.1552222217048325e-05,-5.329070518200751e-15,
24848,Er4Re8,mp-1102143,ErRe2,"['Er', 'Re']",12.0,-121.08982764,0.0003020678011083078,0.0,
18530,C2Er2Re4Si2,mp-1205882,ErRe2SiC,"['Er', 'Re', 'Si', 'C']",10.0,-92.75755614,0.0020901501601553463,8.881784197001252e-15,
14355,Er1Rh1,mp-2381,ErRh,"['Er', 'Rh']",2.0,-13.82553101,0.00467681677734344,0.0,
9606,Er2Rh4,mp-1762,ErRh2,"['Er', 'Rh']",6.0,-43.14577323,0.00019163919759002113,0.0,
23135,Er1Pb1Rh2,mp-863735,ErRh2Pb,"['Er', 'Rh', 'Pb']",4.0,-25.31831312,0.0033355955798315406,0.0,
1262,C1Er1Rh3,mp-568727,ErRh3C,"['Er', 'Rh', 'C']",5.0,-38.52758428,0.029259941052734995,0.0,
11957,Er4O12Rh4,mp-1213022,ErRhO3,"['Er', 'Rh', 'O']",20.0,-150.79201338,0.00045076532617294163,0.0,
5184,Er4Ru8,mp-569220,ErRu2,"['Er', 'Ru']",12.0,-96.8171812,0.0,0.0,
22278,C1Er1Ru3,mp-1206911,ErRu3C,"['Er', 'Ru', 'C']",5.0,-42.84762861,0.002575108078124444,0.0,
8103,Er1S1,mp-1623,ErS,"['Er', 'S']",2.0,-12.60483288,0.0,0.0,
22078,Er4S8,mp-1101873,ErS2,"['Er', 'S']",12.0,-71.69469026,0.000804605585297935,0.0,
15426,Cl2Er2S2,mp-27616,ErSCl,"['Er', 'S', 'Cl']",6.0,-34.2013962,6.516682128854256e-05,0.0,
25489,Er1Sb1,mp-2191,ErSb,"['Er', 'Sb']",2.0,-10.86881606,0.00338446572753881,0.0,
25082,Er4O16Sb4,mp-1213308,ErSbO4,"['Er', 'Sb', 'O']",24.0,-172.05903944,0.0011450953548184373,0.0,
6806,Er1Pd1Sb1,mp-11836,ErSbPd,"['Er', 'Sb', 'Pd']",3.0,-17.22476225,0.0,0.0,
26814,Er1Pt1Sb1,mp-16329,ErSbPt,"['Er', 'Sb', 'Pt']",3.0,-18.41705072,3.179938802144733e-05,0.0,
9637,Er4Rh4Sb4,mp-1213025,ErSbRh,"['Er', 'Sb', 'Rh']",12.0,-76.08193211,0.00418026890950518,0.0,
26658,Er1Se1,mp-2491,ErSe,"['Er', 'Se']",2.0,-11.4380286,0.0,0.0,
18621,Er2Se4,mp-9978,ErSe2,"['Er', 'Se']",6.0,-32.24805957,0.04190347464789479,0.0,
31801,Cl4Er4O12Se4,mp-23086,ErSeClO3,"['Er', 'Se', 'Cl', 'O']",24.0,-148.20949218,0.00031949392415420164,-6.217248937900877e-15,
1251,Er2I2Se2,mp-28458,ErSeI,"['Er', 'Se', 'I']",6.0,-29.28828456,0.00017633075927747655,0.0,
27842,Er2Si2,mp-378,ErSi,"['Er', 'Si']",4.0,-23.28406638,0.0,0.0,
17825,Er2Ni2Si4,mp-12382,ErSi2Ni,"['Er', 'Si', 'Ni']",8.0,-48.99287618,0.002633794150390223,0.0,
553,Er2Rh6Si4,mp-8535,ErSi2Rh3,"['Er', 'Si', 'Rh']",12.0,-87.73484154,0.0004672048372391657,0.0,
28044,Er4Ni20Si12,mp-1204590,ErSi3Ni5,"['Er', 'Si', 'Ni']",36.0,-224.91714565,0.01187479660717461,0.0,
14523,Er6Rh30Si18,mp-15307,ErSi3Rh5,"['Er', 'Si', 'Rh']",54.0,-397.80932672,0.025319760379972855,0.0,
20844,Ag3Er3Si3,mp-1084844,ErSiAg,"['Er', 'Si', 'Ag']",9.0,-43.82017313,0.0003154360492620967,-8.881784197001252e-16,
17582,Er4Ir4Si4,mp-20733,ErSiIr,"['Er', 'Si', 'Ir']",12.0,-88.44009451,0.00015890273112617592,0.0,
12412,Er4Ni4Si4,mp-1213005,ErSiNi,"['Er', 'Si', 'Ni']",12.0,-73.09958619,0.003052067377930179,0.0,
31630,C2Er2Os4Si2,mp-1206269,ErSiOs2C,"['Er', 'Si', 'Os', 'C']",10.0,-88.3907659,0.0005277122177673732,0.0,
18814,Er8Pd8Si8,mp-17093,ErSiPd,"['Er', 'Si', 'Pd']",24.0,-145.66117403,0.0003301612662758302,0.0,
1363,Er4Pd8Si4,mp-3352,ErSiPd2,"['Er', 'Si', 'Pd']",16.0,-97.29341741,0.0,0.0,
31509,Er4Pt4Si4,mp-1102879,ErSiPt,"['Er', 'Si', 'Pt']",12.0,-78.71189704,0.0024765212841799666,0.0,
24442,Er4Rh4Si4,mp-22114,ErSiRh,"['Er', 'Si', 'Rh']",12.0,-82.27608019,0.023578049555665004,0.0,
2995,Er6Rh12Si6,mp-1213010,ErSiRh2,"['Er', 'Si', 'Rh']",24.0,-173.09865454,0.0006946411555981413,0.0,
9207,Er4Ru4Si4,mp-22247,ErSiRu,"['Er', 'Si', 'Ru']",12.0,-87.31802478,0.0,-1.7763568394002505e-15,
8430,C2Er2Ru4Si2,mp-1205505,ErSiRu2C,"['Er', 'Si', 'Ru', 'C']",10.0,-81.65692075,3.6855664047763526e-05,-1.4210854715202004e-14,
2125,Er2Sn4,mp-30613,ErSn2,"['Er', 'Sn']",6.0,-28.53194087,0.0,0.0,
1554,Au1Er1Sn1,mp-5640,ErSnAu,"['Er', 'Sn', 'Au']",3.0,-14.38407684,0.000541446501464371,0.0,
27310,Er2Ge2Sn2,mp-1071492,ErSnGe,"['Er', 'Sn', 'Ge']",6.0,-29.99964186,0.0,0.0,
22748,Er3Ir3Sn3,mp-1078876,ErSnIr,"['Er', 'Sn', 'Ir']",9.0,-59.91188771,0.0,0.0,
5201,Er3Pd3Sn3,mp-1079874,ErSnPd,"['Er', 'Sn', 'Pd']",9.0,-49.65976276,0.0004332440874570409,0.0,
28331,Er1Pd2Sn1,mp-5850,ErSnPd2,"['Er', 'Sn', 'Pd']",4.0,-22.50460817,0.0,0.0,
14786,Er3Pt3Sn3,mp-1079826,ErSnPt,"['Er', 'Sn', 'Pt']",9.0,-53.7285515,0.0005707616102421653,0.0,
18153,Er2Pt4Sn2,mp-30611,ErSnPt2,"['Er', 'Sn', 'Pt']",8.0,-49.51198599,0.0,0.0,
20634,Er3Rh3Sn3,mp-31298,ErSnRh,"['Er', 'Sn', 'Rh']",9.0,-55.97641059,0.0,0.0,
1061,Er1Rh2Sn1,mp-862931,ErSnRh2,"['Er', 'Sn', 'Rh']",4.0,-26.60720267,0.0098471291308595,0.0,
6505,Er1Ru2Sn1,mp-866285,ErSnRu2,"['Er', 'Sn', 'Ru']",4.0,-28.7016466,0.03187280053100583,0.0,
22984,Er2O8Ta2,mp-3444,ErTaO4,"['Er', 'Ta', 'O']",12.0,-111.86199447,-8.881784197001252e-15,-8.881784197001252e-15,
15776,Er1Ru2Ta1,mp-863679,ErTaRu2,"['Er', 'Ta', 'Ru']",4.0,-36.68516611,0.06673699880615303,-1.7763568394002505e-15,
29419,Er4Tc8,mp-1095604,ErTc2,"['Er', 'Tc']",12.0,-103.87575869,0.00017583019531208777,0.0,
30704,Er1Te1,mp-1280,ErTe,"['Er', 'Te']",2.0,-10.12275336,0.03789124526245047,0.0,
20185,Er2Te6,mp-1078991,ErTe3,"['Er', 'Te']",8.0,-35.11583658,0.014105094705810117,0.0,
1724,As4Er4Te4,mp-1212634,ErTeAs,"['Er', 'Te', 'As']",12.0,-63.22995482,8.381260742140739e-05,0.0,
20662,Er1Ru2Th1,mp-1184246,ErThRu2,"['Er', 'Th', 'Ru']",4.0,-32.38265923,0.0005928791149898416,0.0,
6513,Cl2Er2O6Ti2,mp-1212930,ErTiClO3,"['Er', 'Ti', 'Cl', 'O']",12.0,-95.47654176,0.0015281158658861926,0.0,
14979,Er2Ge2Ti2,mp-4743,ErTiGe,"['Er', 'Ti', 'Ge']",6.0,-38.35134301,0.0,0.0,
6979,Er2Si2Ti2,mp-20918,ErTiSi,"['Er', 'Ti', 'Si']",6.0,-39.76199988,0.0,0.0,
18278,Er1Tl1,mp-1054,ErTl,"['Er', 'Tl']",2.0,-7.54533005,0.0026030528503420136,0.0,
1541,Er4Mo8O32Tl4,mp-1213125,ErTl(MoO4)2,"['Er', 'Tl', 'Mo', 'O']",48.0,-339.43765337,0.015926471946642096,-2.842170943040401e-14,
30161,Er2P4Se12Tl2,mp-1105213,ErTl(PSe3)2,"['Er', 'Tl', 'P', 'Se']",20.0,-89.76352537,0.0006341532529292593,0.0,
8924,Er2O16Tl2W4,mp-1213014,ErTl(WO4)2,"['Er', 'Tl', 'W', 'O']",24.0,-176.32281308,0.0020029309521483185,0.0,
11869,Er4P8Se28Tl8,mp-1195632,ErTl2P2Se7,"['Er', 'Tl', 'P', 'Se']",48.0,-206.04662244,0.002965929992137184,0.0,
10151,Er1Tl3,mp-2431,ErTl3,"['Er', 'Tl']",4.0,-12.44927501,0.0,0.0,
10697,Er3Pd3Tl3,mp-30609,ErTlPd,"['Er', 'Tl', 'Pd']",9.0,-42.19744914,0.0203946347569417,0.0,
7965,Er1Rh2Tl1,mp-1184208,ErTlRh2,"['Er', 'Tl', 'Rh']",4.0,-23.93553256,0.0001430298148603626,0.0,
21890,Er1S2Tl1,mp-4123,ErTlS2,"['Er', 'Tl', 'S']",4.0,-21.14618182,0.0001635064868166225,0.0,
21822,Er1Se2Tl1,mp-570117,ErTlSe2,"['Er', 'Tl', 'Se']",4.0,-19.41490292,0.0017408557950853165,0.0,
31023,Er1Te2Tl1,mp-1007907,ErTlTe2,"['Er', 'Tl', 'Te']",4.0,-17.35682831,0.0027499804528803296,0.0,
10900,Er1In2Tm1,mp-1184271,ErTmIn2,"['Er', 'Tm', 'In']",4.0,-16.24042928,0.004589230369262509,0.0,
28078,Er1Ru2Tm1,mp-1184242,ErTmRu2,"['Er', 'Tm', 'Ru']",4.0,-29.20848096,0.0013351127832033072,0.0,
28660,Er1Tl2Tm1,mp-1184245,ErTmTl2,"['Er', 'Tm', 'Tl']",4.0,-14.97211434,0.0008994302320863845,0.0,
15741,B16Er4V4,mp-10983,ErVB4,"['Er', 'V', 'B']",24.0,-179.01112256,0.0,0.0,
29201,Er4O12V4,mp-19205,ErVO3,"['Er', 'V', 'O']",20.0,-165.14834913,0.0,0.0,
29181,Er2O8V2,mp-18960,ErVO4,"['Er', 'V', 'O']",12.0,-96.54286671,0.0,0.0,
468,C8Er4W4,mp-1188587,ErWC2,"['Er', 'W', 'C']",16.0,-148.85939081,0.014665229138184799,0.0,
16668,Er1Zn1,mp-1660,ErZn,"['Er', 'Zn']",2.0,-6.53597981,1.9042372436661736e-05,0.0,
25871,Er1Zn12,mp-30614,ErZn12,"['Er', 'Zn']",13.0,-21.92834833,0.006559241479867861,0.0,
23399,Er2Zn4,mp-1025096,ErZn2,"['Er', 'Zn']",6.0,-16.51499322,0.006096596613769378,0.0,
18121,Er4Zn12,mp-1188367,ErZn3,"['Er', 'Zn']",16.0,-39.16708548,0.00013388250610368857,0.0,
16016,Cu1Er1P2Zn1,mp-1225396,ErZnCuP2,"['Er', 'Zn', 'Cu', 'P']",5.0,-24.5794327,4.440892098500626e-15,0.0,
6284,Er2Ga2Zn2,mp-1018694,ErZnGa,"['Er', 'Zn', 'Ga']",6.0,-21.19861279,5.2038051757907766e-05,0.0,
24352,Er4Ge4Zn4,mp-1212934,ErZnGe,"['Er', 'Zn', 'Ge']",12.0,-49.5580265,0.0,0.0,
16786,Er2In2Zn2,mp-1018689,ErZnIn,"['Er', 'Zn', 'In']",6.0,-19.64066057,0.029475005809732835,0.0,
19749,Er3Ni3Zn3,mp-1078524,ErZnNi,"['Er', 'Zn', 'Ni']",9.0,-39.12203919,0.0010796265397132743,0.0,
16925,Er3Pd3Zn3,mp-1079852,ErZnPd,"['Er', 'Zn', 'Pd']",9.0,-39.91442955,0.0054336251342776976,0.0,
3685,Er4Pt4Zn4,mp-1102795,ErZnPt,"['Er', 'Zn', 'Pt']",12.0,-59.4603472,0.00039283231201103774,0.0,
8826,Er4Rh4Zn4,mp-1212903,ErZnRh,"['Er', 'Zn', 'Rh']",12.0,-61.78389101,0.0006127914029949721,0.0,
11376,Er1Rh2Zn1,mp-977538,ErZnRh2,"['Er', 'Zn', 'Rh']",4.0,-23.34167805,0.014905118237305004,0.0,
26041,Er4Sn4Zn4,mp-1212948,ErZnSn,"['Er', 'Zn', 'Sn']",12.0,-46.02068962,0.0010866611018878203,0.0,
29084,Er2F14Zr2,mp-1212965,ErZrF7,"['Er', 'Zr', 'F']",18.0,-122.7502793,0.00036353878037598264,-6.217248937900877e-15,
16252,Er1Ru2Zr1,mp-1184237,ErZrRu2,"['Er', 'Zr', 'Ru']",4.0,-33.83824007,0.0,0.0,
17156,Er2Sb2Zr2,mp-5848,ErZrSb,"['Er', 'Zr', 'Sb']",6.0,-39.14889596,2.2388850915433522e-06,0.0,
25761,Eu1,mp-623532,Eu,['Eu'],1.0,-10.2570018,0.04437454277343811,0.0,
2938,Ag4Eu1Sb2,mp-1078223,Eu(Ag2Sb)2,"['Eu', 'Ag', 'Sb']",7.0,-32.06871919,0.012420044303150135,0.0,
10474,Al8Cu4Eu1,mp-1104923,Eu(Al2Cu)4,"['Eu', 'Al', 'Cu']",13.0,-60.47600062,0.007545263868689922,0.0,
28740,Al8Eu1Fe4,mp-569200,Eu(Al2Fe)4,"['Eu', 'Al', 'Fe']",13.0,-78.76451699,0.008576160775230157,0.0,
12855,Al32Eu4Fe8,mp-504740,Eu(Al4Fe)2,"['Eu', 'Al', 'Fe']",44.0,-245.03235125,0.007430624001242059,0.0,
19083,Al4Au4Eu2,mp-13485,Eu(AlAu)2,"['Eu', 'Al', 'Au']",10.0,-55.43302289,0.015508898744140964,0.0,
16768,Al4Cl16Eu2,mp-30022,Eu(AlCl4)2,"['Eu', 'Al', 'Cl']",22.0,-104.46531744,0.0015215733283113764,-2.6645352591003757e-15,
11262,Al2Eu1Ga2,mp-20867,Eu(AlGa)2,"['Eu', 'Al', 'Ga']",5.0,-25.93078383,0.010419543204101878,0.0,
19793,Al2Eu1Ge2,mp-20151,Eu(AlGe)2,"['Eu', 'Al', 'Ge']",5.0,-29.15724866,0.0,0.0,
28045,Al4Eu2S8,mp-1103889,Eu(AlS2)2,"['Eu', 'Al', 'S']",14.0,-88.61911373,0.0034412913629999764,-2.6645352591003757e-15,
19693,Al4Eu2Se8,mp-1103552,Eu(AlSe2)2,"['Eu', 'Al', 'Se']",14.0,-80.78121546,0.0031987082491609087,-2.6645352591003757e-15,
26748,Al2Eu1Si2,mp-20595,Eu(AlSi)2,"['Eu', 'Al', 'Si']",5.0,-30.3712182,0.014410266249999637,0.0,
26945,Al2Eu1Zn2,mp-1225559,Eu(AlZn)2,"['Eu', 'Al', 'Zn']",5.0,-21.98098548,0.018560823311523755,0.0,
745,As2Eu1Pd2,mp-1069444,Eu(AsPd)2,"['Eu', 'As', 'Pd']",5.0,-33.97804974,0.012169745603515025,0.0,
17210,As2Eu1Rh2,mp-638841,Eu(AsRh)2,"['Eu', 'As', 'Rh']",5.0,-38.40109715,0.0266090662104439,0.0,
20632,As2Eu1Ru2,mp-4050,Eu(AsRu)2,"['Eu', 'As', 'Ru']",5.0,-41.65224867,0.013259830208980361,-3.552713678800501e-15,
2089,B8Eu4H32,mp-2646920,Eu(BH4)2,"['Eu', 'B', 'H']",44.0,-218.18925154,0.0019063093270599296,-4.440892098500626e-15,
14621,B4Eu2Ir4,mp-20976,Eu(BIr)2,"['Eu', 'B', 'Ir']",10.0,-89.46277996,0.014525226656248336,0.0,
27755,B8Eu2Ir8,mp-20578,Eu(BIr)4,"['Eu', 'B', 'Ir']",18.0,-153.90112296,0.010014009003905144,0.0,
26981,B8Eu4O16,mp-540879,Eu(BO2)2,"['Eu', 'B', 'O']",28.0,-248.74415035,0.0030330389090398313,0.0,
28254,B6Eu2O12,mp-22248,Eu(BO2)3,"['Eu', 'B', 'O']",20.0,-170.95098203,0.040286756654296596,0.0,
19695,B8Eu2Os8,mp-1189309,Eu(BOs)4,"['Eu', 'B', 'Os']",18.0,-169.36033782,0.013187748064236615,0.0,
22025,B16Eu4Ru16,mp-1199986,Eu(BRu)4,"['Eu', 'B', 'Ru']",36.0,-309.08429651,0.014812700026041625,0.0,
28762,Bi4Eu2Pd4,mp-1080767,Eu(BiPd)2,"['Eu', 'Bi', 'Pd']",10.0,-62.62947041,0.03132842598535035,0.0,
31235,As2Cd2Eu1,mp-1070314,Eu(CdAs)2,"['Eu', 'Cd', 'As']",5.0,-24.56111302,0.008765478885740308,0.0,
1880,Cd2Eu1P2,mp-22609,Eu(CdP)2,"['Eu', 'Cd', 'P']",5.0,-25.94146554,0.008929792390625302,0.0,
10516,Cd2Eu1Sb2,mp-19774,Eu(CdSb)2,"['Eu', 'Cd', 'Sb']",5.0,-22.85464998,0.008069869722655554,0.0,
8277,Cl6Eu2O24,mp-627640,Eu(ClO4)3,"['Eu', 'Cl', 'O']",32.0,-161.46455576,0.011106160026855605,0.0,
29070,As2Co2Eu1,mp-570456,Eu(CoAs)2,"['Eu', 'Co', 'As']",5.0,-37.11985267,0.01580760320702712,0.0,
29547,Co2Eu1P2,mp-20038,Eu(CoP)2,"['Eu', 'Co', 'P']",5.0,-39.80039654,0.019913367781249747,0.0,
7552,Co2Eu1Si2,mp-672294,Eu(CoSi)2,"['Eu', 'Co', 'Si']",5.0,-38.56369398,0.020978129048829786,0.0,
6595,As2Cu4Eu1,mp-10442,Eu(Cu2As)2,"['Eu', 'Cu', 'As']",7.0,-38.61980934,0.0404281345776365,-5.329070518200751e-15,
3999,Cu4Eu2O8,mp-9418,Eu(CuO2)2,"['Eu', 'Cu', 'O']",14.0,-96.35053293,0.025403287505580963,0.0,
20800,Cu4Eu2Sb4,mp-505769,Eu(CuSb)2,"['Eu', 'Cu', 'Sb']",10.0,-57.92923135,0.02467488669800222,0.0,
21386,Cu2Eu1Si2,mp-3412,Eu(CuSi)2,"['Eu', 'Cu', 'Si']",5.0,-31.62915445,0.019924838149413482,0.0,
25033,Cu2Eu1Sn2,mp-1069357,Eu(CuSn)2,"['Eu', 'Cu', 'Sn']",5.0,-28.3126739,0.013194971586914406,0.0,
7769,Dy8Eu4S16,mp-1193960,Eu(DyS2)2,"['Eu', 'Dy', 'S']",28.0,-203.33089803,0.005729423907652631,0.0,
10053,Dy8Eu4Se16,mp-645690,Eu(DySe2)2,"['Eu', 'Dy', 'Se']",28.0,-187.91483424,0.00511962413643996,0.0,
7770,Er8Eu4S16,mp-541052,Eu(ErS2)2,"['Eu', 'Er', 'S']",28.0,-203.16199703,0.005632473886717726,0.0,
10182,Er8Eu4Se16,mp-1193984,Eu(ErSe2)2,"['Eu', 'Er', 'Se']",28.0,-187.51471921,0.005022588377511461,0.0,
5158,As2Eu1Fe2,mp-20890,Eu(FeAs)2,"['Eu', 'Fe', 'As']",5.0,-39.43180547,0.014347676751949479,0.0,
26601,Eu1Fe2P2,mp-20095,Eu(FeP)2,"['Eu', 'Fe', 'P']",5.0,-42.49389743,0.01608333748632873,0.0,
17118,Eu1Fe4P12,mp-20856,Eu(FeP3)4,"['Eu', 'Fe', 'P']",17.0,-118.6660651,0.006480279905789921,0.0,
21090,Eu1Fe2Si2,mp-582357,Eu(FeSi)2,"['Eu', 'Fe', 'Si']",5.0,-40.48237595,0.021100987978517338,0.0,
28292,Co8Eu4Ga32,mp-1197356,Eu(Ga4Co)2,"['Eu', 'Ga', 'Co']",44.0,-211.19488757,0.005597148622158876,0.0,
13492,Eu4Ga32Ir8,mp-1203832,Eu(Ga4Ir)2,"['Eu', 'Ga', 'Ir']",44.0,-229.56093936,0.003962526530535193,-8.881784197001252e-15,
21692,Eu4Ga32Rh8,mp-1198816,Eu(Ga4Rh)2,"['Eu', 'Ga', 'Rh']",44.0,-219.96261832,0.004975352124458432,-4.440892098500626e-15,
18483,Eu4Ga8P8,mp-1226022,Eu(GaP)2,"['Eu', 'Ga', 'P']",20.0,-122.13832098,0.013054654124999843,0.0,
22611,Eu8Ga16S32,mp-1181942,Eu(GaS2)2,"['Eu', 'Ga', 'S']",56.0,-327.00740043,0.005761160011160449,0.0,
23151,Eu4Ga8Sb8,mp-945228,Eu(GaSb)2,"['Eu', 'Ga', 'Sb']",20.0,-108.25058032,0.009805047720700344,0.0,
20904,Eu8Ga16Se32,mp-1201775,Eu(GaSe2)2,"['Eu', 'Ga', 'Se']",56.0,-300.26258106,0.005623883833705712,0.0,
11316,Eu2Ga4Te8,mp-1103807,Eu(GaTe2)2,"['Eu', 'Ga', 'Te']",14.0,-67.93957354,0.005795149102957531,0.0,
26715,Eu2Gd4S8,mp-675143,Eu(GdS2)2,"['Eu', 'Gd', 'S']",14.0,-139.37687431,0.015106529475454877,0.0,
24816,Eu1Ge12Pt4,mp-1184807,Eu(Ge3Pt)4,"['Eu', 'Ge', 'Pt']",17.0,-96.17415096,0.0,0.0,
27343,Eu1Ge2Ir2,mp-570058,Eu(GeIr)2,"['Eu', 'Ge', 'Ir']",5.0,-40.72192862,0.0,0.0,
19037,Eu2Ge4Pt4,mp-1080180,Eu(GePt)2,"['Eu', 'Ge', 'Pt']",10.0,-71.67537978,0.0,0.0,
28890,Eu1Ge2Rh2,mp-626981,Eu(GeRh)2,"['Eu', 'Ge', 'Rh']",5.0,-38.38880022,0.0,0.0,
25319,Eu4Ho8S16,mp-1193160,Eu(HoS2)2,"['Eu', 'Ho', 'S']",28.0,-203.21323206,0.005715994543805891,0.0,
20928,Eu4Ho8Se16,mp-1193885,Eu(HoSe2)2,"['Eu', 'Ho', 'Se']",28.0,-187.68147439,0.0050277831905694015,0.0,
4315,Eu4I12O36,mp-556079,Eu(IO3)3,"['Eu', 'I', 'O']",52.0,-281.67212428,0.022653230868390217,1.0658141036401503e-14,
6514,Au8Eu4In16,mp-1192981,Eu(In2Au)2,"['Eu', 'In', 'Au']",28.0,-122.96929855,0.008661025034877312,0.0,
490,Eu4In32Rh8,mp-21952,Eu(In4Rh)2,"['Eu', 'In', 'Rh']",44.0,-203.51617721,0.014731081309038885,0.0,
8522,As4Eu2In4,mp-608777,Eu(InAs)2,"['Eu', 'In', 'As']",10.0,-56.24510905,0.008348515776367194,0.0,
12636,Au6Eu2In6,mp-606777,Eu(InAu)3,"['Eu', 'In', 'Au']",14.0,-63.11228371,0.011522701570164884,-1.5987211554602254e-14,
10099,Eu2In4S8,mp-1105168,Eu(InS2)2,"['Eu', 'In', 'S']",14.0,-78.66324672,0.009065307727202487,0.0,
25936,Eu4Lu8Se16,mp-645692,Eu(LuSe2)2,"['Eu', 'Lu', 'Se']",28.0,-186.74530081,0.0047400851199776994,0.0,
10159,Eu1Ga2Mg2,mp-1212857,Eu(MgGa)2,"['Eu', 'Mg', 'Ga']",5.0,-21.29705658,0.0029089720921007256,-7.993605777301127e-15,
18264,Eu1Mg2P2,mp-1206478,Eu(MgP)2,"['Eu', 'Mg', 'P']",5.0,-29.1690492,0.0,0.0,
7925,Eu1Mo6S8,mp-3627,Eu(Mo3S4)2,"['Eu', 'Mo', 'S']",15.0,-121.85546189,0.004158615699219936,0.0,
10321,Eu4N12O36,mp-1019733,Eu(NO3)3,"['Eu', 'N', 'O']",52.0,-363.32887551,0.015183217731383536,0.0,
11720,B6Eu1Ni12,mp-580731,Eu(Ni2B)6,"['Eu', 'Ni', 'B']",19.0,-126.59697192,0.0,0.0,
10945,Eu2Ni20P12,mp-21672,Eu(Ni5P3)2,"['Eu', 'Ni', 'P']",34.0,-222.7574647,0.007423887853046374,0.0,
14267,As2Eu1Ni2,mp-6992,Eu(NiAs)2,"['Eu', 'Ni', 'As']",5.0,-34.76241029,0.01646401743945347,0.0,
20656,Eu1Ni2P2,mp-3758,Eu(NiP)2,"['Eu', 'Ni', 'P']",5.0,-37.09252737,0.020746234984375,0.0,
11096,Eu1Ni2Sb2,mp-570308,Eu(NiSb)2,"['Eu', 'Ni', 'Sb']",5.0,-32.82706545,0.04048191732421813,-2.6645352591003757e-15,
23192,Eu1P12Ru4,mp-1188524,Eu(P3Ru)4,"['Eu', 'P', 'Ru']",17.0,-122.98259489,0.005017593643152907,0.0,
4861,Eu3Ir6P6,mp-21386,Eu(PIr)2,"['Eu', 'P', 'Ir']",15.0,-130.63025455,0.015376421927083328,7.105427357601002e-15,
13550,Eu2O18P6,mp-1213012,Eu(PO3)3,"['Eu', 'P', 'O']",26.0,-204.19097958,0.0,1.4210854715202004e-14,
23481,Eu1Os2P2,mp-20802,Eu(POs)2,"['Eu', 'P', 'Os']",5.0,-46.95249914,0.013180591921875262,0.0,
26004,Eu1P2Pd2,mp-581754,Eu(PPd)2,"['Eu', 'P', 'Pd']",5.0,-35.9333227,0.01550220804687541,6.217248937900877e-15,
701,Eu1P2Rh2,mp-8582,Eu(PRh)2,"['Eu', 'P', 'Rh']",5.0,-40.72580179,0.018426067781250666,0.0,
16603,Eu1P2Ru2,mp-22788,Eu(PRu)2,"['Eu', 'P', 'Ru']",5.0,-44.45680624,0.014469898240232482,1.7763568394002505e-15,
6386,Eu1O8Re2,mp-754760,Eu(ReO4)2,"['Eu', 'Re', 'O']",11.0,-96.92119584,0.011333331617558784,1.5987211554602254e-14,
6139,Eu1Ru4Sb12,mp-20855,Eu(Sb3Ru)4,"['Eu', 'Sb', 'Ru']",17.0,-102.2097971,0.004608417514934793,0.0,
19661,Eu2Pd4Sb4,mp-504900,Eu(SbPd)2,"['Eu', 'Sb', 'Pd']",10.0,-65.6619989,0.009431598037108913,0.0,
9263,Eu8O64Se16,mp-1199825,Eu(SeO4)2,"['Eu', 'Se', 'O']",88.0,-542.40608866,0.03806705484880446,0.0,
8096,Ag2Eu1Si2,mp-22653,Eu(SiAg)2,"['Eu', 'Si', 'Ag']",5.0,-28.55349002,0.014636505277342948,0.0,
11383,Au2Eu1Si2,mp-21229,Eu(SiAu)2,"['Eu', 'Si', 'Au']",5.0,-30.38391381,0.014401091149414569,0.0,
8999,Eu1Ir2Si2,mp-21849,Eu(SiIr)2,"['Eu', 'Si', 'Ir']",5.0,-43.6405641,0.01728775983398556,0.0,
16406,Eu1Ni2Si2,mp-4768,Eu(SiNi)2,"['Eu', 'Si', 'Ni']",5.0,-36.0504736,0.018077161103517092,0.0,
17283,Eu1Pd2Si2,mp-20115,Eu(SiPd)2,"['Eu', 'Si', 'Pd']",5.0,-35.58778694,0.015874960632813462,0.0,
9441,Eu1Pt2Si2,mp-1076931,Eu(SiPt)2,"['Eu', 'Si', 'Pt']",5.0,-37.88161861,0.08743241813672054,0.0,
30321,Eu1Ru2Si2,mp-581736,Eu(SiRu)2,"['Eu', 'Si', 'Ru']",5.0,-43.47866187,0.017120445824218677,0.0,
2320,Eu2Pd4Sn4,mp-1079406,Eu(SnPd)2,"['Eu', 'Sn', 'Pd']",10.0,-64.60004715,0.01262406917968839,0.0,
19011,Eu4Se16Tm8,mp-542964,Eu(TmSe2)2,"['Eu', 'Tm', 'Se']",28.0,-186.67865451,0.004879447954799332,0.0,
29847,Eu4Se16Y8,mp-1193787,Eu(YSe2)2,"['Eu', 'Y', 'Se']",28.0,-203.03628693,0.005176559315011708,0.0,