,Composition,MaterialId,Reduced Formula,Elements,NSites,Corrected Energy,Decomposition Energy Per Atom All,Decomposition Energy Per Atom MP,Directory
7626,Cr2Cu2S8Sn2,mp-1226299,CrCuSnS4,"['Cr', 'Cu', 'Sn', 'S']",14.0,-75.84673307,0.00016908648297953022,0.0,
14510,Cr2F4,mp-554340,CrF2,"['Cr', 'F']",6.0,-38.05280576,0.0,0.0,
27544,Cr2F6,mp-560338,CrF3,"['Cr', 'F']",8.0,-48.33936735,0.0007357623107902,0.0,
22024,Cr8F32,mp-554855,CrF4,"['Cr', 'F']",40.0,-211.96166736,9.243734374386747e-06,0.0,
5145,Cr4F20,mp-639662,CrF5,"['Cr', 'F']",24.0,-115.08849746,0.006183455442707597,0.0,
17715,Cr1F6,mp-1391848,CrF6,"['Cr', 'F']",7.0,-30.8112255,0.0012361863606775714,0.0,
1112,Cr4Fe4P4,mp-21495,CrFeP,"['Cr', 'Fe', 'P']",12.0,-100.84119915,3.709475911506388e-05,0.0,
20352,Cr1Ga4,mp-1070544,CrGa4,"['Cr', 'Ga']",5.0,-22.54707074,0.0,0.0,
29087,Cr1Ga1Rh2,mp-1183690,CrGaRh2,"['Cr', 'Ga', 'Rh']",4.0,-28.95287515,0.011788365057372907,0.0,
15207,Cr1Ga1Ru2,mp-1183688,CrGaRu2,"['Cr', 'Ga', 'Ru']",4.0,-32.00676024,0.0,0.0,
13724,Cr4Ga4Se12,mp-8829,CrGaSe3,"['Cr', 'Ga', 'Se']",20.0,-104.24677807,2.3459170898298964e-05,0.0,
10225,Cr2Ge2Te6,mp-541449,CrGeTe3,"['Cr', 'Ge', 'Te']",10.0,-49.07504223,0.0,0.0,
11209,Cr1H1,mp-24287,CrH,"['Cr', 'H']",2.0,-12.98274567,0.0013820516271971783,0.0,
16481,Cl20Cr4H40N8O4,mp-1204986,CrH10N2Cl5O,"['Cr', 'H', 'N', 'Cl', 'O']",76.0,-350.0856114,0.006213736314669482,0.0,
27882,Cl6Cr2H24O12,mp-734815,CrH12(ClO2)3,"['Cr', 'H', 'Cl', 'O']",44.0,-214.46340159,0.0,0.0,
15097,Cl2Cr1H12I1N4,mp-1181888,CrH12I(N2Cl)2,"['Cr', 'H', 'I', 'N', 'Cl']",20.0,-100.20390009,0.0008921567548823006,0.0,
6285,Cl6Cr2H28N8O2,mp-728578,CrH14N4Cl3O,"['Cr', 'H', 'N', 'Cl', 'O']",46.0,-228.63355993,0.01687939608943001,0.0,
197,Cr4H60O60S8,mp-727766,CrH15S2O15,"['Cr', 'H', 'S', 'O']",132.0,-722.72214647,0.0,0.0,
3257,Cl4Cr2H34N8O6,mp-24480,CrH17N4Cl2O3,"['Cr', 'H', 'N', 'Cl', 'O']",54.0,-273.6865106,0.011417002413550037,0.0,
25252,Cr4F12H72O36,mp-725062,CrH18(O3F)3,"['Cr', 'H', 'O', 'F']",124.0,-633.3232624,2.2750774949287234e-05,0.0,
17906,Cr1H2,mp-24208,CrH2,"['Cr', 'H']",3.0,-16.22364984,0.00819232503924372,0.0,
31682,Br6Cr2H18N6,mp-866468,CrH9(BrN)3,"['Cr', 'H', 'Br', 'N']",32.0,-158.52995533,0.0037782323327633094,0.0,
18479,Cr4H4O8,mp-23910,CrHO2,"['Cr', 'H', 'O']",16.0,-110.06084103,0.0,0.0,
7129,Cr4H4O32Se12,mp-1182406,CrHSe3O8,"['Cr', 'H', 'Se', 'O']",52.0,-298.11956055,0.0007585965069214495,0.0,
11362,Cr2Hg2O12Pb4,mp-556308,CrHg(PbO3)2,"['Cr', 'Hg', 'Pb', 'O']",20.0,-111.91199672,0.001117836729491728,0.0,
18936,Cr4Hg12O32Pb8,mp-559462,CrHg3(PbO4)2,"['Cr', 'Hg', 'Pb', 'O']",56.0,-270.60803954,1.7004575791901289e-06,0.0,
9935,As16Br28Cr4Hg24,mp-567329,CrHg6As4Br7,"['Cr', 'Hg', 'As', 'Br']",72.0,-193.19357182,0.0004002900027129108,0.0,
4038,Cr1F6Hg1,mp-558864,CrHgF6,"['Cr', 'Hg', 'F']",8.0,-35.1417349,0.001233588397216323,0.0,
19669,Cr2Hg2O8,mp-19380,CrHgO4,"['Cr', 'Hg', 'O']",12.0,-65.58586061,6.708153157575225e-05,-5.329070518200751e-15,
27929,Cr6I18,mp-1213805,CrI3,"['Cr', 'I']",24.0,-95.88151643,0.0016740781424964268,0.0,
27919,Cr1Ir3,mp-12083,CrIr3,"['Cr', 'Ir']",4.0,-37.13071549,0.002135008420410145,0.0,
27537,Cr1Ir1O4,mp-753633,CrIrO4,"['Cr', 'Ir', 'O']",6.0,-43.85119942,6.905316894645352e-05,0.0,
11729,Cr1F6Mo1,mp-557158,CrMoF6,"['Cr', 'Mo', 'F']",8.0,-47.27632276,0.0,0.0,
11154,Cr1Mo1O4,mp-1213733,CrMoO4,"['Cr', 'Mo', 'O']",6.0,-45.34323094,0.0,0.0,
8966,Cr1N1,mp-1183691,CrN,"['Cr', 'N']",2.0,-19.01161583,0.00042819187255815905,0.0,
14118,Cr1Ni2,mp-784631,CrNi2,"['Cr', 'Ni']",3.0,-21.26867678,0.0002466763606774336,0.0,
30635,B4Cr4Ni8O20,mp-1213761,CrNi2BO5,"['Cr', 'Ni', 'B', 'O']",36.0,-241.97286671,0.0006510006770827914,-1.4210854715202004e-14,
2383,Ag4Cr2F14Ni2,mp-1213740,CrNiAg2F7,"['Cr', 'Ni', 'Ag', 'F']",22.0,-101.72917085,6.854745649764737e-05,0.0,
23864,As3Cr3Ni3,mp-4989,CrNiAs,"['Cr', 'Ni', 'As']",9.0,-62.22274011,0.012866980914711945,0.0,
24742,Cr1F6Ni1,mp-690539,CrNiF6,"['Cr', 'Ni', 'F']",8.0,-39.87824127,0.0005323374353025656,0.0,
2104,Cr2Ni2O8,mp-18726,CrNiO4,"['Cr', 'Ni', 'O']",12.0,-74.31955397,0.0,0.0,
7635,Cr4Ni4P4,mp-1101790,CrNiP,"['Cr', 'Ni', 'P']",12.0,-89.56971727,9.2199952799632e-05,0.0,
13862,Cr2Ni2O10P2,mp-1226272,CrNiPO5,"['Cr', 'Ni', 'P', 'O']",16.0,-111.89774823,0.0,0.0,
4794,Cr2O4,mp-19177,CrO2,"['Cr', 'O']",6.0,-44.63814413,-1.5987211554602254e-14,-1.5987211554602254e-14,
22141,Cr4P4,mp-21048,CrP,"['Cr', 'P']",8.0,-64.57468695,0.00019324501953121853,0.0,
18940,Cr2P4,mp-7291,CrP2,"['Cr', 'P']",6.0,-43.52449608,0.0,0.0,
20085,Cr4O52P8Pb20,mp-554745,CrP2Pb5O13,"['Cr', 'P', 'Pb', 'O']",84.0,-545.47843396,0.00028836059524106616,0.0,
20967,Cr4H8O40P12,mp-605503,CrP3(HO5)2,"['Cr', 'P', 'H', 'O']",64.0,-444.91920503,0.002805195606689459,0.0,
8343,Cr2P8,mp-7302,CrP4,"['Cr', 'P']",10.0,-65.42777995,0.00019533263671878132,0.0,
8271,Cr1O24P6W3,mp-775489,CrP6(WO8)3,"['Cr', 'P', 'W', 'O']",34.0,-253.93199268,-1.1901590823981678e-13,-1.1901590823981678e-13,
29105,Cr6O24P6,mp-19401,CrPO4,"['Cr', 'P', 'O']",36.0,-274.1423958,0.0,0.0,
7863,Cr4F28Pb8,mp-1197980,CrPb2F7,"['Cr', 'Pb', 'F']",40.0,-214.55712651,0.0,0.0,
27792,Cr2O10Pb4,mp-22373,CrPb2O5,"['Cr', 'Pb', 'O']",16.0,-99.90807398,0.0005972057788081742,0.0,
7811,Cr4O16Pb4,mp-19146,CrPbO4,"['Cr', 'Pb', 'O']",24.0,-155.02731002,0.0,0.0,
2969,Cr1Pd3,mp-865786,CrPd3,"['Cr', 'Pd']",4.0,-25.4903999,0.0,0.0,
23345,Cr4O8Pd4,mp-1063607,CrPdO2,"['Cr', 'Pd', 'O']",16.0,-112.39122988,0.0,0.0,
29205,Cr1Pt3,mp-2515,CrPt3,"['Cr', 'Pt']",4.0,-28.86792979,-3.552713678800501e-15,0.0,
20313,Cr1Rh3,mp-12585,CrRh3,"['Cr', 'Rh']",4.0,-32.18013221,0.0034336299340829157,0.0,
30456,Cr1S2,mp-755263,CrS2,"['Cr', 'S']",3.0,-19.52940793,0.12930110117348903,0.0,
25179,Br2Cr2S2,mp-22998,CrSBr,"['Cr', 'S', 'Br']",6.0,-35.46434874,1.340167643526513e-06,0.0,
25662,Cr2Sb4,mp-22498,CrSb2,"['Cr', 'Sb']",6.0,-35.26214435,0.04692638619574652,0.0,
29812,Cr2O26Pb8Sb6,mp-1226278,CrSb3Pb4O13,"['Cr', 'Sb', 'Pb', 'O']",42.0,-259.25770011,0.0,0.0,
14683,Cr4F40Sb4,mp-557145,CrSbF10,"['Cr', 'Sb', 'F']",48.0,-223.33970287,0.00013354514811148022,0.0,
6980,Cr4O16Sb4,mp-33857,CrSbO4,"['Cr', 'Sb', 'O']",24.0,-166.18150703,0.006401181082349439,-7.105427357601002e-15,
4660,Cr4Sb4Se12,mp-15236,CrSbSe3,"['Cr', 'Sb', 'Se']",20.0,-105.14216898,0.0,0.0,
19182,Cr1Se2,mp-1009581,CrSe2,"['Cr', 'Se']",3.0,-18.00654214,0.022959494593099095,0.0,
28715,Cr1Si2,mp-8937,CrSi2,"['Cr', 'Si']",3.0,-21.62040737,0.0,0.0,
6217,Cr2F12H16O8Si2,mp-1196749,CrSiH8(O2F3)2,"['Cr', 'Si', 'H', 'O', 'F']",40.0,-215.17131851,0.00025867543359403555,0.0,
28816,Cr1Ru2Si1,mp-865791,CrSiRu2,"['Cr', 'Si', 'Ru']",4.0,-35.32500462,0.0001315964648433976,0.0,
16037,Cr2Si2Te6,mp-3779,CrSiTe3,"['Cr', 'Si', 'Te']",10.0,-50.87400708,4.440892098500626e-15,-4.440892098500626e-15,
28036,Cr1Rh2Sn1,mp-1018066,CrSnRh2,"['Cr', 'Sn', 'Rh']",4.0,-29.55083955,0.0,0.0,
28039,Cr4O24Sb4Sn4,mp-1226180,CrSnSbO6,"['Cr', 'Sn', 'Sb', 'O']",36.0,-241.96516138,0.0,0.0,
12145,Cr1Te2,mp-685055,CrTe2,"['Cr', 'Te']",3.0,-16.52604429,0.0012742483040355523,0.0,
19641,Cr8Te24,mp-540922,CrTe3,"['Cr', 'Te']",32.0,-156.95241666,0.0015672749377433348,0.0,
12374,Au1Cr1Te4,mp-12743,CrTe4Au,"['Cr', 'Te', 'Au']",6.0,-26.37315966,0.0003502286840824098,0.0,
12111,Cr1O4W1,mp-18785,CrWO4,"['Cr', 'W', 'O']",6.0,-46.90403057,0.0001240859082010104,0.0,
4452,Cs29,mp-1184151,Cs,['Cs'],29.0,-25.96666879,0.0,0.0,
25512,As2Cs1Ir2,mp-1206348,Cs(AsIr)2,"['Cs', 'As', 'Ir']",5.0,-30.22085466,0.0011091430732417251,0.0,
20894,As2Cs1Rh2,mp-569012,Cs(AsRh)2,"['Cs', 'As', 'Rh']",5.0,-28.02209221,0.0,0.0,
9276,As2Cs1Ru2,mp-570837,Cs(AsRu)2,"['Cs', 'As', 'Ru']",5.0,-30.73490982,7.8430287109299e-05,0.0,
2141,B24Br24Cs4,mp-569897,Cs(BBr)6,"['Cs', 'B', 'Br']",52.0,-239.89664319,0.00011274364182689567,0.0,
24835,B24Cl24Cs4,mp-570530,Cs(BCl)6,"['Cs', 'B', 'Cl']",52.0,-257.86397413,6.86925495791968e-05,0.0,
26892,B12Cs2H12,mp-24136,Cs(BH)6,"['Cs', 'B', 'H']",26.0,-132.75809659,0.0,0.0,
31218,B24Cs4I24,mp-640353,Cs(BI)6,"['Cs', 'B', 'I']",52.0,-223.15202381,4.592648662793408e-05,0.0,
23460,Bi16Cs4Te24,mp-672338,Cs(Bi2Te3)2,"['Cs', 'Bi', 'Te']",44.0,-157.35654397,0.008636278330523606,0.0,
3921,As2Co2Cs1,mp-1206830,Cs(CoAs)2,"['Cs', 'Co', 'As']",5.0,-26.37096876,0.0017698405293007369,0.0,
13428,Co2Cs1S2,mp-557018,Cs(CoS)2,"['Cs', 'Co', 'S']",5.0,-26.41502115,0.02055416998339421,0.0,
24466,Cr8Cs4S16,mp-1238823,Cs(CrS2)2,"['Cs', 'Cr', 'S']",28.0,-170.31348483,0.001988400149270042,0.0,
8375,Cs1Fe2P2,mp-1207125,Cs(FeP)2,"['Cs', 'Fe', 'P']",5.0,-31.10259903,0.0024980773007809987,0.0,
2649,Cs2Mo6S6,mp-561682,Cs(MoS)3,"['Cs', 'Mo', 'S']",14.0,-103.15335955,0.0,0.0,
26795,Cs2Mo6Se6,mp-1104663,Cs(MoSe)3,"['Cs', 'Mo', 'Se']",14.0,-98.00443412,0.0036735027985494995,0.0,
14834,Cl60Cs4Nb24,mp-1214012,Cs(Nb2Cl5)3,"['Cs', 'Nb', 'Cl']",88.0,-474.20539545,0.0001718284934302261,8.881784197001252e-16,
25980,Cs1Nb6S8,mp-1229220,Cs(Nb3S4)2,"['Cs', 'Nb', 'S']",15.0,-111.40330341,4.348116276009506e-05,0.0,
5891,Cs2Nb4S8,mp-1229211,Cs(NbS2)2,"['Cs', 'Nb', 'S']",14.0,-92.10540878,0.0005886254380573774,-2.6645352591003757e-15,
29129,Cs1Np2Se6,mp-1229166,Cs(NpSe3)2,"['Cs', 'Np', 'Se']",9.0,-57.04486681,0.005764697163628263,0.0,
16218,Cs2O12Os4,mp-559998,Cs(OsO3)2,"['Cs', 'Os', 'O']",18.0,-127.96081627,0.000337525201820732,-1.7763568394002505e-15,
30565,Cs1Ir2P2,mp-1207365,Cs(PIr)2,"['Cs', 'P', 'Ir']",5.0,-32.64929534,8.783141406176753e-05,0.0,
19837,Cs1P2Rh2,mp-1206405,Cs(PRh)2,"['Cs', 'P', 'Rh']",5.0,-30.13458558,0.0025678235751955825,0.0,
24556,Cs1P2Ru2,mp-1207015,Cs(PRu)2,"['Cs', 'P', 'Ru']",5.0,-33.40446496,0.000292158146486976,0.0,
19118,Cs2S8Sb4,mp-8890,Cs(SbS2)2,"['Cs', 'Sb', 'S']",14.0,-58.66387505,0.0,-8.881784197001252e-16,
21754,Cs2Sb4Se8,mp-3312,Cs(SbSe2)2,"['Cs', 'Sb', 'Se']",14.0,-53.39294093,0.0,-3.552713678800501e-15,
25853,Cs2O12Te4,mp-561786,Cs(TeO3)2,"['Cs', 'Te', 'O']",18.0,-95.13809834,3.7132424045793755e-05,0.0,
2863,Cs1Se6Th2,mp-1229164,Cs(ThSe3)2,"['Cs', 'Th', 'Se']",9.0,-49.97517036,0.018069429672308956,0.0,
17745,Cs1Te6Th2,mp-1229153,Cs(ThTe3)2,"['Cs', 'Th', 'Te']",9.0,-44.56313898,-4.440892098500626e-15,0.0,
24285,Cs1Se8Ti6,mp-1229235,Cs(Ti3Se4)2,"['Cs', 'Ti', 'Se']",15.0,-94.48840548,0.004772369088845707,0.0,
5236,Cs1O9W3,mp-753119,Cs(WO3)3,"['Cs', 'W', 'O']",13.0,-94.0038219,0.013147269179466292,0.0,
31308,Cs20Mo12N30,mp-685609,Cs10(Mo2N5)3,"['Cs', 'Mo', 'N']",62.0,-423.80979996,-8.881784197001252e-16,-8.881784197001252e-16,
8817,Cs20P8Pd2Se32,mp-1199790,Cs10P4PdSe16,"['Cs', 'P', 'Pd', 'Se']",62.0,-234.96548195,0.002488519219379981,0.0,
29304,Cs40O36Si28,mp-581173,Cs10Si7O9,"['Cs', 'Si', 'O']",104.0,-531.36286429,4.7973323317407335e-05,-8.881784197001252e-16,
11159,Cs40O16Si4Tl24,mp-1199833,Cs10Tl6SiO4,"['Cs', 'Tl', 'Si', 'O']",84.0,-268.83017236,0.00019620481491777753,0.0,
16692,As18Cs24In12Nb2,mp-582185,Cs12Nb(In2As3)3,"['Cs', 'Nb', 'In', 'As']",56.0,-182.85391045,4.2813096400529105e-05,0.0,
22472,As6Cs12O1Sn2,mp-1226383,Cs12Sn2As6O,"['Cs', 'Sn', 'As', 'O']",21.0,-61.89738001,0.009958166741649954,0.0,
31575,Cs19N30W12,mp-1228320,Cs19(W2N5)6,"['Cs', 'W', 'N']",61.0,-452.84239808,-8.881784197001252e-16,-8.881784197001252e-16,
15002,Cs8P12Se24,mp-1213727,Cs2(PSe2)3,"['Cs', 'P', 'Se']",44.0,-178.44517017,0.00017426915216223193,0.0,
25562,Ag2As2Cs4S8,mp-561622,Cs2AgAsS4,"['Cs', 'Ag', 'As', 'S']",16.0,-61.80698354,0.00394726145901636,0.0,
16495,Ag1Au1Cl6Cs2,mp-567776,Cs2AgAuCl6,"['Cs', 'Ag', 'Au', 'Cl']",10.0,-29.81467614,0.00021516493067608167,1.199040866595169e-14,
89,Ag1Bi1Cl6Cs2,mp-1078258,Cs2AgBiCl6,"['Cs', 'Ag', 'Bi', 'Cl']",10.0,-32.99007475,4.329199219110791e-06,0.0,
22369,Ag1Bi1Cs2F6,mp-1114309,Cs2AgBiF6,"['Cs', 'Ag', 'Bi', 'F']",10.0,-42.92190708,0.001869126185551906,0.0,
21125,Ag4Br12Cs8,mp-640052,Cs2AgBr3,"['Cs', 'Ag', 'Br']",24.0,-70.24434721,3.4823891601476475e-05,0.0,
10519,Ag4Cl12Cs8,mp-1190886,Cs2AgCl3,"['Cs', 'Ag', 'Cl']",24.0,-76.13292891,0.0005446262068686814,0.0,
23566,Ag2Cs4F8,mp-510565,Cs2AgF4,"['Cs', 'Ag', 'F']",14.0,-53.66360611,0.0002257254192210567,-3.552713678800501e-15,
15740,Ag1Cs2F6,mp-1206546,Cs2AgF6,"['Cs', 'Ag', 'F']",9.0,-32.33347035,6.594364149359322e-05,0.0,
15609,Ag4Cs8I12,mp-540881,Cs2AgI3,"['Cs', 'Ag', 'I']",24.0,-64.07758361,6.0877822265492654e-05,0.0,
24470,Ag1Cl6Cs2Sb1,mp-1112940,Cs2AgSbCl6,"['Cs', 'Ag', 'Sb', 'Cl']",10.0,-32.70641657,9.398908203284151e-06,0.0,
24000,Ag2Cs4S8Sb2,mp-510710,Cs2AgSbS4,"['Cs', 'Ag', 'Sb', 'S']",16.0,-61.0091337,0.012753017587787241,0.0,
24311,Al3Cs6N15O45,mp-572149,Cs2Al(NO3)5,"['Cs', 'Al', 'N', 'O']",69.0,-426.22314146,0.0,0.0,
28524,Al1Cs2O12Te3,mp-1226182,Cs2Al(TeO4)3,"['Cs', 'Al', 'Te', 'O']",18.0,-99.17042733,0.0,0.0,
1574,Al2As2Cs2O7,mp-554206,Cs2Al2As2O7,"['Cs', 'Al', 'As', 'O']",13.0,-80.98511198,0.00020667123497641882,0.0,
3113,Al4B4Cs4O14,mp-1019602,Cs2Al2B2O7,"['Cs', 'Al', 'B', 'O']",26.0,-182.32652602,0.00037591949068627173,0.0,
11555,Al2Cs2O9P2,mp-560387,Cs2Al2P2O9,"['Cs', 'Al', 'P', 'O']",15.0,-103.36107852,0.00030951956510527623,0.0,
19736,Al2Cs2O7Sb2,mp-557359,Cs2Al2Sb2O7,"['Cs', 'Al', 'Sb', 'O']",13.0,-80.06549504,0.00024072859375046107,0.0,
2297,Ag1Al1Cs2F6,mp-1113614,Cs2AlAgF6,"['Cs', 'Al', 'Ag', 'F']",10.0,-47.45633845,0.002473764454103744,0.0,
926,Al4Cs8O40P12,mp-542656,Cs2AlP3O10,"['Cs', 'Al', 'P', 'O']",64.0,-440.33442191,2.4806429443025024e-05,0.0,
23023,Al1Cs2F6Tl1,mp-1111952,Cs2AlTlF6,"['Cs', 'Al', 'Tl', 'F']",10.0,-48.65230367,8.14008007754552e-06,0.0,
10805,As4Cs4Pd2,mp-8857,Cs2As2Pd,"['Cs', 'As', 'Pd']",10.0,-37.70344957,0.0,0.0,
1956,As4Cs4Pt2,mp-1206558,Cs2As2Pt,"['Cs', 'As', 'Pt']",10.0,-39.38593576,4.3585254882572144e-05,8.881784197001252e-16,
16611,As6Cs4,mp-15557,Cs2As3,"['Cs', 'As']",10.0,-35.97984171,0.04892069683329492,8.881784197001252e-16,
2831,As16Cs8O56Pd12,mp-558846,Cs2As4Pd3O14,"['Cs', 'As', 'Pd', 'O']",92.0,-524.67377267,0.005354282926291809,0.0,
29321,As64Cs16S104,mp-650280,Cs2As8S13,"['Cs', 'As', 'S']",184.0,-805.66730328,0.003590822654550685,1.7763568394002505e-15,
23141,As2Cs4H6O16Se2,mp-1226376,Cs2AsH3SeO8,"['Cs', 'As', 'H', 'Se', 'O']",30.0,-157.16264113,0.0005398757447920843,0.0,
20054,As4Cs8H20O24,mp-1204178,Cs2AsH5O6,"['Cs', 'As', 'H', 'O']",56.0,-287.65419116,0.0012990025488281987,0.0,
29097,Au4Cs4Se6,mp-29194,Cs2Au2Se3,"['Cs', 'Au', 'Se']",14.0,-47.11734176,2.112706473322845e-06,0.0,
10158,B8Cs8O52S12,mp-1019604,Cs2B2S3O13,"['Cs', 'B', 'S', 'O']",80.0,-509.63465476,7.15640351556246e-05,-1.2434497875801753e-14,
14693,Ba4C6Cs4O18,mp-558539,Cs2Ba2(CO3)3,"['Cs', 'Ba', 'C', 'O']",32.0,-221.90517451,3.829351074191578e-05,0.0,
29903,Ba4Cs8O28P8,mp-1019603,Cs2BaP2O7,"['Cs', 'Ba', 'P', 'O']",48.0,-316.08029983,6.261645670591065e-05,0.0,
26297,Be4Cl16Cs8,mp-1193604,Cs2BeCl4,"['Cs', 'Be', 'Cl']",28.0,-102.74784013,0.0001683290973772955,0.0,
8320,Be4Cs8F16,mp-5013,Cs2BeF4,"['Cs', 'Be', 'F']",28.0,-137.83381366,5.5082036830356174e-05,0.0,
30739,Be4Cs8O8,mp-755292,Cs2BeO2,"['Cs', 'Be', 'O']",20.0,-96.66621873,0.016649119041993288,0.0,
22718,Bi4Cs4Pd2,mp-1080693,Cs2Bi2Pd,"['Cs', 'Bi', 'Pd']",10.0,-33.34246776,0.0006241346445339246,0.0,
23397,Bi32Cs16O56,mp-555117,Cs2Bi4O7,"['Cs', 'Bi', 'O']",104.0,-552.09472436,4.625090141985311e-07,0.0,
18562,Bi8Cs4Se14,mp-1229208,Cs2Bi4Se7,"['Cs', 'Bi', 'Se']",26.0,-100.44427563,0.0006400265692603213,0.0,
25460,Bi4Cs8O32P4W4,mp-1201858,Cs2BiPWO8,"['Cs', 'Bi', 'P', 'W', 'O']",52.0,-336.92102938,0.00033244281249977803,0.0,
31543,C3Cs6N6,mp-1029699,Cs2CN2,"['Cs', 'C', 'N']",15.0,-89.5755512,0.0,0.0,
21449,C4Cs8O12,mp-616458,Cs2CO3,"['Cs', 'C', 'O']",24.0,-144.83687685,0.0012230267578123843,0.0,
14516,Ca8Cs8O48S12,mp-1213739,Cs2Ca2(SO4)3,"['Cs', 'Ca', 'S', 'O']",76.0,-470.1423875,0.000729080360814649,0.0,
20222,Be12Ca8Cs8F48,mp-562057,Cs2Ca2Be3F12,"['Cs', 'Ca', 'Be', 'F']",76.0,-419.5197117,1.201389288585375e-05,-1.0658141036401503e-14,
9153,Br4Ca1Cs2,mp-1025267,Cs2CaBr4,"['Cs', 'Ca', 'Br']",7.0,-23.89661412,0.0003826708803047474,0.0,
318,Ca1Cl4Cs2,mp-1025185,Cs2CaCl4,"['Cs', 'Ca', 'Cl']",7.0,-26.50292392,5.46852741347692e-05,0.0,
16643,Ca1Cs2F4,mp-15157,Cs2CaF4,"['Cs', 'Ca', 'F']",7.0,-33.9367313,0.0,0.0,
11998,Ca1Cs2H4,mp-697133,Cs2CaH4,"['Cs', 'Ca', 'H']",7.0,-19.59016538,1.721116489949992e-05,0.0,
21234,Ca1Cs2O7P2,mp-1226202,Cs2CaP2O7,"['Cs', 'Ca', 'P', 'O']",12.0,-79.10451936,0.00019721377441417332,0.0,
8587,Ca4Cs8O28V8,mp-1202328,Cs2CaV2O7,"['Cs', 'Ca', 'V', 'O']",48.0,-320.15736879,0.0009182557991467277,0.0,
20260,Cd8Cs8Mo12O48,mp-1200495,Cs2Cd2(MoO4)3,"['Cs', 'Cd', 'Mo', 'O']",76.0,-462.69734771,0.0007091764103615006,0.0,
22186,Cd6Cs4Te8,mp-567386,Cs2Cd3Te4,"['Cs', 'Cd', 'Te']",18.0,-47.1997985,0.00048422877332887637,0.0,
4960,Bi8Cd4Cs8S20,mp-559668,Cs2CdBi2S5,"['Cs', 'Cd', 'Bi', 'S']",40.0,-154.51289338,7.166269238112477e-05,0.0,
15768,Br16Cd4Cs8,mp-1192554,Cs2CdBr4,"['Cs', 'Cd', 'Br']",28.0,-77.21489343,0.004238760905412864,0.0,
28195,C6Cd1Cs2Fe1N6,mp-1188970,Cs2CdFe(CN)6,"['Cs', 'Cd', 'Fe', 'C', 'N']",16.0,-118.43248737,0.00010541126220697805,0.0,
23608,Cd4Cs8Ge12S32,mp-1194601,Cs2CdGe3S8,"['Cs', 'Cd', 'Ge', 'S']",56.0,-237.44120138,4.440892098500626e-15,0.0,
27594,Cd2Cs4I8,mp-1103539,Cs2CdI4,"['Cs', 'Cd', 'I']",14.0,-34.11983599,0.00042945486816448053,0.0,
11684,Cd4Cs8O28P8,mp-1195999,Cs2CdP2O7,"['Cs', 'Cd', 'P', 'O']",48.0,-295.15891979,0.0004299598193382437,0.0,
3220,Cd4Cs8Se32Sn12,mp-1195716,Cs2CdSn3Se8,"['Cs', 'Cd', 'Sn', 'Se']",56.0,-207.89552212,0.0005665692857141913,0.0,
9812,Ag1Br6Ce1Cs2,mp-1113262,Cs2CeAgBr6,"['Cs', 'Ce', 'Ag', 'Br']",10.0,-36.08300945,0.02422855176513572,0.0,
18041,Ce1Cl6Cs2,mp-1101094,Cs2CeCl6,"['Cs', 'Ce', 'Cl']",9.0,-37.23969085,0.0003929078070754599,0.0,
19262,Ce2Cs4O6,mp-768223,Cs2CeO3,"['Cs', 'Ce', 'O']",12.0,-73.10757382,0.0,0.0,
17124,Br16Co4Cs8,mp-1214168,Cs2CoBr4,"['Cs', 'Co', 'Br']",28.0,-96.19584549,0.0019136079882815515,0.0,
8222,Cl16Co4Cs8,mp-1193242,Cs2CoCl4,"['Cs', 'Co', 'Cl']",28.0,-105.79721779,0.0006759485051617276,0.0,
29492,Co1Cs2F6,mp-610706,Cs2CoF6,"['Cs', 'Co', 'F']",9.0,-38.27904404,0.061935950036892784,0.0,
7186,Co2Cs4H24O28S4,mp-863299,Cs2CoH12(SO7)2,"['Cs', 'Co', 'H', 'S', 'O']",62.0,-331.26377481,0.0,0.0,
14445,Co4Cs8O16Si4,mp-542168,Cs2CoSiO4,"['Cs', 'Co', 'Si', 'O']",32.0,-192.6740009,0.0,0.0,
15611,Cr3Cs6N15O45,mp-560716,Cs2Cr(NO3)5,"['Cs', 'Cr', 'N', 'O']",69.0,-431.36871325,1.1447294054889312e-06,1.2434497875801753e-14,
27852,Cd1Cr4Cs2H4O16,mp-572375,Cs2Cr4Cd(HO4)4,"['Cs', 'Cr', 'Cd', 'H', 'O']",27.0,-160.40775847,7.105458598388736e-06,0.0,
23007,Cr1Cs2F6,mp-557324,Cs2CrF6,"['Cs', 'Cr', 'F']",9.0,-44.90648963,0.0029903659537762195,-9.769962616701378e-15,
10184,Cr2Cs4F20H8,mp-1204482,Cs2CrH4F10,"['Cs', 'Cr', 'H', 'F']",34.0,-158.02661839,0.0015020793209838956,0.0,
3626,Cr4Cs8O16,mp-647813,Cs2CrO4,"['Cs', 'Cr', 'O']",28.0,-163.94296679,0.0,0.0,
15147,Cs4Cu4Sb4Se10,mp-1192085,Cs2Cu2Sb2Se5,"['Cs', 'Cu', 'Sb', 'Se']",22.0,-83.49359698,0.006782815301756173,0.0,
3520,Cs4Cu4O38Si16,mp-556177,Cs2Cu2Si8O19,"['Cs', 'Cu', 'Si', 'O']",62.0,-446.60911158,0.0002969181905241314,-1.3322676295501878e-14,
13468,Cs4Cu6O28P8,mp-638252,Cs2Cu3(P2O7)2,"['Cs', 'Cu', 'P', 'O']",46.0,-293.926639,0.001567439368206358,-1.2434497875801753e-14,
8929,Cs4Cu6F24Sn2,mp-1194546,Cs2Cu3SnF12,"['Cs', 'Cu', 'Sn', 'F']",36.0,-159.01145946,0.0,0.0,
1989,Cs4Cu10Se8,mp-28467,Cs2Cu5Se4,"['Cs', 'Cu', 'Se']",22.0,-82.78776716,0.022451716615322415,-8.881784197001252e-16,
3807,Br16Cs8Cu4,mp-1192723,Cs2CuBr4,"['Cs', 'Cu', 'Br']",28.0,-82.82330656,0.0009066430684998572,0.0,
6453,Cl16Cs8Cu4,mp-616439,Cs2CuCl4,"['Cs', 'Cu', 'Cl']",28.0,-91.63678132,0.0045595089571710545,0.0,
19425,Cs2Cu1F4,mp-1025265,Cs2CuF4,"['Cs', 'Cu', 'F']",7.0,-29.09407125,0.006480666155134429,0.0,
10933,Cs2Cu1F6,mp-28692,Cs2CuF6,"['Cs', 'Cu', 'F']",9.0,-35.12739685,0.00013034064127648293,0.0,
24042,Cs4Cu2O14P4,mp-1191467,Cs2CuP2O7,"['Cs', 'Cu', 'P', 'O']",24.0,-150.89425224,0.0005900301611339032,1.1546319456101628e-14,
24695,Ag1Cl6Cs2Dy1,mp-1113610,Cs2DyAgCl6,"['Cs', 'Dy', 'Ag', 'Cl']",10.0,-38.81728037,1.234385938353455e-05,-2.6645352591003757e-15,