,Composition,MaterialId,Reduced Formula,Elements,NSites,Corrected Energy,Decomposition Energy Per Atom All,Decomposition Energy Per Atom MP,Directory
26682,Ce4Ge10Ir6,mp-1188091,Ce2Ge5Ir3,"['Ce', 'Ge', 'Ir']",20.0,-137.92429844,-1.7763568394002505e-15,0.0,
4504,Ce4Ge10Rh6,mp-1106369,Ce2Ge5Rh3,"['Ce', 'Ge', 'Rh']",20.0,-130.26834705,0.0,0.0,
19313,Ce4H10,mp-1104579,Ce2H5,"['Ce', 'H']",14.0,-64.82578576,0.0013889470047345753,-8.881784197001252e-15,
29732,Ce8H32O64S12,mp-1199805,Ce2H8S3O16,"['Ce', 'H', 'S', 'O']",116.0,-714.70866196,0.009341704505309245,0.0,
20907,Ce8Hf4S20,mp-985298,Ce2HfS5,"['Ce', 'Hf', 'S']",32.0,-229.7580056,0.10381325960083032,0.0,
7890,Ce8Hf4Se20,mp-1006367,Ce2HfSe5,"['Ce', 'Hf', 'Se']",32.0,-209.89850823,0.0903542159265136,0.0,
11763,Ce8In12Ru8,mp-645068,Ce2In3Ru2,"['Ce', 'In', 'Ru']",28.0,-166.87506568,0.0260411374748859,0.0,
3132,Ce2Co1In8,mp-19989,Ce2In8Co,"['Ce', 'In', 'Co']",11.0,-44.33807128,0.0,0.0,
8504,Ce2In8Pd1,mp-1102172,Ce2In8Pd,"['Ce', 'In', 'Pd']",11.0,-43.64673672,0.001576507977626651,0.0,
9862,Ce2In8Pt1,mp-1103614,Ce2In8Pt,"['Ce', 'In', 'Pt']",11.0,-44.72717757,0.003698836932703564,0.0,
31775,Ce2In8Rh1,mp-1206465,Ce2In8Rh,"['Ce', 'In', 'Rh']",11.0,-45.84956794,0.013498308301223894,0.0,
1459,Au4Ce4In2,mp-1206585,Ce2InAu2,"['Ce', 'In', 'Au']",10.0,-49.03734972,0.0,0.0,
331,Ce4In2Ni4,mp-640108,Ce2InNi2,"['Ce', 'In', 'Ni']",10.0,-57.01907482,0.0,0.0,
14109,Ce4In2Pd4,mp-20165,Ce2InPd2,"['Ce', 'In', 'Pd']",10.0,-57.47009079,0.0,0.0,
10531,Ce4In2Pt4,mp-20357,Ce2InPt2,"['Ce', 'In', 'Pt']",10.0,-63.7067327,0.0,0.0,
6138,Ce4In2Rh4,mp-1205710,Ce2InRh2,"['Ce', 'In', 'Rh']",10.0,-66.38661047,0.0,0.0,
16258,Ce2Mn1O2Se2,mp-1226784,Ce2Mn(SeO)2,"['Ce', 'Mn', 'Se', 'O']",7.0,-52.25827257,0.006428064353546148,0.0,
13133,C2Ce2Mn17,mp-1227057,Ce2Mn17C2,"['Ce', 'Mn', 'C']",21.0,-187.0791201,0.007356655450692529,0.0,
21432,Ce2Mn1N3,mp-10068,Ce2MnN3,"['Ce', 'Mn', 'N']",6.0,-53.55203202,0.0,0.0,
1489,C3Ce2Mo2,mp-13263,Ce2Mo2C3,"['Ce', 'Mo', 'C']",7.0,-63.24792427,0.0,0.0,
16376,Ce4Cl6N2,mp-1101996,Ce2NCl3,"['Ce', 'N', 'Cl']",12.0,-76.12856619,0.00886586595783978,0.0,
6156,As7Ce2Ni12,mp-1191623,Ce2Ni12As7,"['Ce', 'Ni', 'As']",21.0,-124.95459879,0.0063388742345606985,1.0658141036401503e-14,
15345,Ce4Ni24P10,mp-1214085,Ce2Ni12P5,"['Ce', 'Ni', 'P']",38.0,-242.96197807,0.006219936252182201,0.0,
7236,Ce2Ni12P7,mp-569521,Ce2Ni12P7,"['Ce', 'Ni', 'P']",21.0,-134.90066504,0.0,0.0,
6049,Ce2Ni2Sn1,mp-22713,Ce2Ni2Sn,"['Ce', 'Ni', 'Sn']",5.0,-29.95533015,0.0628196206347651,0.0,
10456,Ce4Ge10Ni6,mp-1213960,Ce2Ni3Ge5,"['Ce', 'Ni', 'Ge']",20.0,-117.62337288,0.0,0.0,
10679,C6Ce4Ni10,mp-1189522,Ce2Ni5C3,"['Ce', 'Ni', 'C']",20.0,-142.57558689,0.04679185402245967,0.0,
10897,Ce8Ni28,mp-1204381,Ce2Ni7,"['Ce', 'Ni']",36.0,-222.90212591,0.0,-2.220446049250313e-14,
21923,Ce4Ni14P8,mp-505789,Ce2Ni7P4,"['Ce', 'Ni', 'P']",26.0,-170.33497452,0.026232270377103184,-6.217248937900877e-15,
24604,B20Ce4Ni2,mp-21169,Ce2NiB10,"['Ce', 'Ni', 'B']",26.0,-183.89394009,0.0,0.0,
761,Ce2Ni1Ru3,mp-1226785,Ce2NiRu3,"['Ce', 'Ni', 'Ru']",6.0,-47.4761061,0.0,0.0,
19680,Ce16O24,mp-542313,Ce2O3,"['Ce', 'O']",40.0,-347.98431325,0.013258544482420476,0.0,
23445,Au4Ce8P12,mp-628664,Ce2P3Au,"['Ce', 'P', 'Au']",24.0,-150.51129737,0.0025474483284524396,0.0,
8092,Ce2P1Pt8,mp-1102498,Ce2PPt8,"['Ce', 'P', 'Pt']",11.0,-75.41553031,0.0,0.0,
29072,Ce4Pb2Pd4,mp-21443,Ce2Pd2Pb,"['Ce', 'Pd', 'Pb']",10.0,-59.26443119,0.0,0.0,
3142,C1Ce2Re2Si2,mp-1025285,Ce2Re2Si2C,"['Ce', 'Re', 'Si', 'C']",7.0,-60.72091386,-3.552713678800501e-15,0.0,
9387,Ce8Re12Si20,mp-1197667,Ce2Re3Si5,"['Ce', 'Re', 'Si']",40.0,-329.63854104,0.0,0.0,
3039,C8Ce8Re4,mp-985704,Ce2ReC2,"['Ce', 'Re', 'C']",20.0,-176.96546164,0.0,0.0,
3929,Ce8S12,mp-20973,Ce2S3,"['Ce', 'S']",20.0,-137.63541208,0.025607557621093235,0.0,
2101,Ce2O2S1,mp-3972,Ce2SO2,"['Ce', 'S', 'O']",5.0,-41.17682525,0.0,0.0,
15304,Ce4Sb2,mp-22678,Ce2Sb,"['Ce', 'Sb']",6.0,-36.48206428,0.0,0.0,
4879,Ce2O2Sb1,mp-20356,Ce2SbO2,"['Ce', 'Sb', 'O']",5.0,-39.20664816,0.0,0.0,
6227,Br4Ce8S20Sb4,mp-629511,Ce2SbS5Br,"['Ce', 'Sb', 'S', 'Br']",36.0,-201.50202659,0.001652803861393437,0.0,
4311,Ce2Sb1Te1,mp-1226772,Ce2SbTe,"['Ce', 'Sb', 'Te']",4.0,-24.08628459,0.0,0.0,
724,Ce8Sc12Si16,mp-505512,Ce2Sc3Si4,"['Ce', 'Sc', 'Si']",36.0,-238.04038262,0.0,0.0,
3701,Ce16Se24,mp-32578,Ce2Se3,"['Ce', 'Se']",40.0,-251.59474479,0.01855049035742251,0.0,
10262,Ce2F4Se1,mp-27617,Ce2SeF4,"['Ce', 'Se', 'F']",7.0,-47.36498606,0.0,0.0,
12851,Ce2N2Se1,mp-1069558,Ce2SeN2,"['Ce', 'Se', 'N']",5.0,-40.38633151,0.0,-7.105427357601002e-15,
13390,Ce2O2Se1,mp-754640,Ce2SeO2,"['Ce', 'Se', 'O']",5.0,-40.19464384,0.0,0.0,
28401,Ce8O28Si8,mp-662527,Ce2Si2O7,"['Ce', 'Si', 'O']",44.0,-367.01296785,0.19772326486151215,7.105427357601002e-15,
7650,Ce4Si4Sn2,mp-1205534,Ce2Si2Sn,"['Ce', 'Si', 'Sn']",10.0,-59.83909311,0.02551998323780147,0.0,
25576,Ce4Rh2Si6,mp-31163,Ce2Si3Rh,"['Ce', 'Si', 'Rh']",12.0,-81.72154186,0.012838768287008584,-8.881784197001252e-16,
21338,Ce4Ir6Si10,mp-1105703,Ce2Si5Ir3,"['Ce', 'Si', 'Ir']",20.0,-150.81018419,1.7763568394002505e-15,7.105427357601002e-15,
922,Ce4Ni6Si10,mp-1183797,Ce2Si5Ni3,"['Ce', 'Si', 'Ni']",20.0,-128.26769509,0.0,0.0,
2325,Ce4Pd6Si10,mp-1213852,Ce2Si5Pd3,"['Ce', 'Si', 'Pd']",20.0,-125.32347409,0.0,0.0,
12874,Ce4Rh30Si14,mp-628614,Ce2Si7Rh15,"['Ce', 'Si', 'Rh']",48.0,-362.03532498,0.00868318624837272,0.0,
31581,Ce4Ge2Si2,mp-1226899,Ce2SiGe,"['Ce', 'Si', 'Ge']",8.0,-49.23751133,0.007389839761521522,0.0,
15188,Ce4Pd28Si2,mp-1203477,Ce2SiPd14,"['Ce', 'Si', 'Pd']",34.0,-199.29045274,0.2559162792795293,0.0,
2801,Ce8Sn12,mp-1213936,Ce2Sn3,"['Ce', 'Sn']",20.0,-107.48584363,0.004899726230711998,-2.6645352591003757e-15,
5093,Ce4Pd4Sn2,mp-1206052,Ce2SnPd2,"['Ce', 'Sn', 'Pd']",10.0,-60.78011348,0.0,0.0,
9025,Ce4S10Sn2,mp-1106406,Ce2SnS5,"['Ce', 'Sn', 'S']",16.0,-95.84529741,0.024186262071835607,0.0,
22131,Ce4Cl4O22Te8,mp-1195865,Ce2Te4Cl2O11,"['Ce', 'Te', 'Cl', 'O']",38.0,-232.26620824,0.0,0.0,
12782,Ce4Te10,mp-1104233,Ce2Te5,"['Ce', 'Te']",14.0,-75.441101,0.0,0.0,
14399,Ce2O2Te1,mp-4873,Ce2TeO2,"['Ce', 'Te', 'O']",5.0,-39.16262677,0.01708354492578046,0.0,
29259,Ce2S3Th1,mp-1226812,Ce2ThS3,"['Ce', 'Th', 'S']",6.0,-43.6677374,0.0,0.0,
140,Ce8S20Th4,mp-1201912,Ce2ThS5,"['Ce', 'Th', 'S']",32.0,-224.54114604,0.007726904450683136,0.0,
9577,Ce8O20Ti4,mp-768309,Ce2TiO5,"['Ce', 'Ti', 'O']",32.0,-284.29249833,0.034121603701171566,0.0,
14146,Ce8S20U4,mp-985558,Ce2US5,"['Ce', 'U', 'S']",32.0,-233.75128109,0.09805673717773455,0.0,
969,Ce8Se20U4,mp-985277,Ce2USe5,"['Ce', 'U', 'Se']",32.0,-214.05477975,0.0,0.0,
13224,C8Ce8W4,mp-567492,Ce2WC2,"['Ce', 'W', 'C']",20.0,-178.61415494,0.0,0.0,
26565,Ce2Zn17,mp-542458,Ce2Zn17,"['Ce', 'Zn']",19.0,-37.87396092,0.0,0.0,
12883,Ce4Ru2Zn8,mp-606377,Ce2Zn4Ru,"['Ce', 'Zn', 'Ru']",14.0,-57.69420383,0.0,0.0,
4689,Ce4Sn2Zn10,mp-1106202,Ce2Zn5Sn,"['Ce', 'Zn', 'Sn']",16.0,-51.83975545,0.0,0.0,
8244,Bi4Ce2Zn1,mp-1226818,Ce2ZnBi4,"['Ce', 'Zn', 'Bi']",7.0,-32.25841201,0.007997302088123881,0.0,
11854,Ce2Sb4Zn1,mp-1226796,Ce2ZnSb4,"['Ce', 'Zn', 'Sb']",7.0,-34.54760128,-2.6645352591003757e-15,0.0,
16769,Ce4O14Zr4,mp-560329,Ce2Zr2O7,"['Ce', 'Zr', 'O']",22.0,-201.49917187,0.008874389875677124,0.0,
23036,Ce8S20Zr4,mp-1203122,Ce2ZrS5,"['Ce', 'Zr', 'S']",32.0,-223.93475518,0.0009711859338379369,3.552713678800501e-15,
15509,Ce8Se20Zr4,mp-1194651,Ce2ZrSe5,"['Ce', 'Zr', 'Se']",32.0,-206.30669816,0.0,0.0,
24544,Ag4Ce3Sn4,mp-542824,Ce3(AgSn)4,"['Ce', 'Ag', 'Sn']",11.0,-50.11225316,0.019884112141334676,0.0,
22362,Al24Ce6Os8,mp-1213926,Ce3(Al3Os)4,"['Ce', 'Al', 'Os']",38.0,-237.57037809,5.329070518200751e-15,0.0,
14919,Al24Ce12Pt16,mp-1199697,Ce3(Al3Pt2)2,"['Ce', 'Al', 'Pt']",52.0,-308.9471904,0.03716625817534247,0.0,
19748,Al24Ce6Ru8,mp-31079,Ce3(Al3Ru)4,"['Ce', 'Al', 'Ru']",38.0,-224.2667882,-8.881784197001252e-16,-8.881784197001252e-16,
8569,B2Ce3N4,mp-3603,Ce3(BN2)2,"['Ce', 'B', 'N']",9.0,-77.04278182,0.0,0.0,
4855,Ce3Cu4Sn4,mp-542881,Ce3(CuSn)4,"['Ce', 'Cu', 'Sn']",11.0,-55.15330061,0.020307207937127814,0.0,
29853,Ce12Ga8Rh8,mp-1213977,Ce3(GaRh)2,"['Ce', 'Ga', 'Rh']",28.0,-174.42341481,0.01741162193673329,0.0,
31518,Ce12Ge8Rh8,mp-21597,Ce3(GeRh)2,"['Ce', 'Ge', 'Rh']",28.0,-191.00417418,0.0,0.0,
5195,Ce3Ge4Rh4,mp-1206300,Ce3(GeRh)4,"['Ce', 'Ge', 'Rh']",11.0,-75.52115753,0.0,0.0,
8903,Ce12In8Ru8,mp-21556,Ce3(InRu)2,"['Ce', 'In', 'Ru']",28.0,-180.26342489,0.0012622214229907058,0.0,
1171,Ce3P6Pd20,mp-1214002,Ce3(P3Pd10)2,"['Ce', 'P', 'Pd']",29.0,-173.49601687,0.0842053557031246,0.0,
2816,Ce3Pd20Si6,mp-1192814,Ce3(Si3Pd10)2,"['Ce', 'Si', 'Pd']",29.0,-176.68704535,0.024170936718596714,2.6645352591003757e-15,
25275,Ce3Ni4Si4,mp-1206722,Ce3(SiNi)4,"['Ce', 'Si', 'Ni']",11.0,-71.22843638,0.0773245684084003,0.0,
28197,Ce6Ni12Si4,mp-510324,Ce3(SiNi3)2,"['Ce', 'Si', 'Ni']",22.0,-139.49968269,0.30959375223899244,0.0,
5061,Ce3Pd4Si4,mp-1103548,Ce3(SiPd)4,"['Ce', 'Si', 'Pd']",11.0,-70.14289597,0.0,0.0,
11152,Ce12Rh8Si8,mp-978253,Ce3(SiRh)2,"['Ce', 'Si', 'Rh']",28.0,-197.49929823,0.034350554565754976,0.0,
613,Ce3Rh4Si4,mp-1102698,Ce3(SiRh)4,"['Ce', 'Si', 'Rh']",11.0,-80.13597373,0.0003095395260332978,-3.552713678800501e-15,
12887,Ce12Pd16Sn24,mp-1215117,Ce3(Sn3Pd2)2,"['Ce', 'Sn', 'Pd']",52.0,-287.19470362,0.008197462686298174,0.0,
16840,Ce3N6Ta2,mp-867221,Ce3(TaN3)2,"['Ce', 'Ta', 'N']",11.0,-106.68088052,0.006055407112929956,0.0,
2821,Al11Ce3,mp-1213865,Ce3Al11,"['Ce', 'Al']",14.0,-63.97159958,0.002754346022098453,0.0,
25025,Al1C1Ce3,mp-10036,Ce3AlC,"['Ce', 'Al', 'C']",5.0,-31.92253815,0.0,0.0,
2528,Al1Ce3N1,mp-10881,Ce3AlN,"['Ce', 'Al', 'N']",5.0,-33.66286499,0.0,0.0,
12223,B4Ce6Cl6O12,mp-680695,Ce3B2(ClO2)3,"['Ce', 'B', 'Cl', 'O']",28.0,-211.93117317,0.07579325383370605,0.0,
2999,Au6Bi8Ce6,mp-1105587,Ce3Bi4Au3,"['Ce', 'Bi', 'Au']",20.0,-99.60455872,0.0,0.0,
30401,Bi8Ce6Pd6,mp-582142,Ce3Bi4Pd3,"['Ce', 'Bi', 'Pd']",20.0,-113.65242763,0.0,0.0,
8667,Bi8Ce6Pt6,mp-1105392,Ce3Bi4Pt3,"['Ce', 'Bi', 'Pt']",20.0,-120.34076323,0.0,0.0,
18882,Br24C16Ce24,mp-1215059,Ce3C2Br3,"['Ce', 'C', 'Br']",64.0,-404.97888577,0.19510762902452328,0.0,
26999,C4Ce12Cl20,mp-580802,Ce3CCl5,"['Ce', 'C', 'Cl']",36.0,-208.38361652,0.06985271358289591,0.0,
10713,C2Ce6I10,mp-573743,Ce3CI5,"['Ce', 'C', 'I']",18.0,-90.49154495,0.007910978662108548,0.0,
24772,Ce12Co4Ge8,mp-1214556,Ce3CoGe2,"['Ce', 'Co', 'Ge']",24.0,-151.61316108,0.0,0.0,
20537,Ce6Cr20N22,mp-1214072,Ce3Cr10N11,"['Ce', 'Cr', 'N']",48.0,-450.18365895,0.0,0.0,
12366,Ce6Cu6Sb8,mp-1189165,Ce3Cu3Sb4,"['Ce', 'Cu', 'Sb']",20.0,-107.34320344,-9.769962616701378e-15,-9.769962616701378e-15,
14646,Ce3Cu4O2P4,mp-1213889,Ce3Cu4(P2O)2,"['Ce', 'Cu', 'P', 'O']",13.0,-84.24037844,0.015028110863508637,0.0,
25130,Ce6Cu2Ge2S14,mp-558303,Ce3CuGeS7,"['Ce', 'Cu', 'Ge', 'S']",24.0,-145.13305038,0.003504370559896053,0.0,
2925,Ce6Cu2Se14Si2,mp-571472,Ce3CuSiSe7,"['Ce', 'Cu', 'Si', 'Se']",24.0,-135.26800924,0.0010445012711590707,0.0,
25647,Ce6Cu2S14Sn2,mp-510567,Ce3CuSnS7,"['Ce', 'Cu', 'Sn', 'S']",24.0,-143.41653437,0.04333344556661345,0.0,
23202,Ce3Ga1,mp-19920,Ce3Ga,"['Ce', 'Ga']",4.0,-21.83199787,0.026043390097656882,0.0,
13337,Ce6Cl2Ga8,mp-30278,Ce3Ga4Cl,"['Ce', 'Ga', 'Cl']",16.0,-77.5396405,0.014590179626464916,0.0,
7688,Ce6Ge26Os8,mp-1201534,Ce3Ge13Os4,"['Ce', 'Ge', 'Os']",40.0,-259.73999917,0.0,0.0,
22414,Ce6Hf2Sb10,mp-1213881,Ce3HfSb5,"['Ce', 'Hf', 'Sb']",18.0,-113.09485743,0.013874735062933574,0.0,
5269,Ce3In1,mp-20984,Ce3In,"['Ce', 'In']",4.0,-21.36505706,0.0,0.0,
12169,Ce3In3Ru2,mp-606102,Ce3In3Ru2,"['Ce', 'In', 'Ru']",8.0,-48.32978102,0.0,0.0,
29831,C1Ce3In1,mp-20992,Ce3InC,"['Ce', 'In', 'C']",5.0,-31.39530843,0.0,0.0,
11976,Ce12I12Ir4,mp-1192762,Ce3IrI3,"['Ce', 'Ir', 'I']",28.0,-155.06794165,0.014035169342911935,0.0,
9088,Ce12Lu4Se24,mp-645694,Ce3LuSe6,"['Ce', 'Lu', 'Se']",40.0,-246.51982371,0.01581727040918679,0.0,
8461,Ce6Nb2Sb10,mp-1213895,Ce3NbSb5,"['Ce', 'Nb', 'Sb']",18.0,-112.01253088,-5.329070518200751e-15,-5.329070518200751e-15,
7824,B2Ce3Ni13,mp-1106339,Ce3Ni13B2,"['Ce', 'Ni', 'B']",18.0,-113.91763627,2.220446049250313e-14,2.220446049250313e-14,
7005,B2Ce3N3Ni2,mp-21136,Ce3Ni2B2N3,"['Ce', 'Ni', 'B', 'N']",10.0,-78.96713061,0.0,0.0,
2561,Ce3Ge7Ni2,mp-1213875,Ce3Ni2Ge7,"['Ce', 'Ni', 'Ge']",12.0,-69.69884403,0.0,0.0,
14988,Ce3Ni2Sn7,mp-510126,Ce3Ni2Sn7,"['Ce', 'Ni', 'Sn']",12.0,-64.02989329,0.1413573116894522,0.0,
8838,Ce12Os4,mp-1188974,Ce3Os,"['Ce', 'Os']",16.0,-118.17464655,0.020084552127277888,0.0,
14522,Br12Ce12P4,mp-1213927,Ce3PBr3,"['Ce', 'P', 'Br']",28.0,-156.54749346,0.01936804344963683,0.0,
12156,Ce12I12P4,mp-1213898,Ce3PI3,"['Ce', 'P', 'I']",28.0,-146.63905532,0.04216221633510031,0.0,
8656,Ce3Pb1,mp-570018,Ce3Pb,"['Ce', 'Pb']",4.0,-22.62757571,0.0,0.0,
9483,Ce6Pd8,mp-1103851,Ce3Pd4,"['Ce', 'Pd']",14.0,-87.27340359,0.04467846725481195,0.0,
14892,Ce3Pd5,mp-1025404,Ce3Pd5,"['Ce', 'Pd']",8.0,-49.8190463,0.02768050532836952,-5.329070518200751e-15,
8118,Ce6Pt8,mp-1104294,Ce3Pt4,"['Ce', 'Pt']",14.0,-99.39055324,0.008244016391601328,0.0,
5523,Ce12O12S8,mp-510277,Ce3S2O3,"['Ce', 'S', 'O']",32.0,-258.05045061,0.007193575297911536,0.0,
844,Ce12N4S12,mp-543033,Ce3S3N,"['Ce', 'S', 'N']",28.0,-207.99264161,0.010337403171737591,0.0,
3910,Ce6Pt6Sb8,mp-1188608,Ce3Sb4Pt3,"['Ce', 'Sb', 'Pt']",20.0,-126.49975772,0.0,0.0,
31121,Ce6Pd12Sb10,mp-662558,Ce3Sb5Pd6,"['Ce', 'Sb', 'Pd']",28.0,-162.904107,0.057520373697336424,0.0,
14860,Ce6Se8,mp-567370,Ce3Se4,"['Ce', 'Se']",14.0,-89.38090756,0.0006582054659602932,0.0,
20115,Ce6Pt46Si22,mp-568452,Ce3Si11Pt23,"['Ce', 'Si', 'Pt']",74.0,-499.0963738,0.0,0.0,
8471,Ce12Rh12Si8,mp-623044,Ce3Si2Rh3,"['Ce', 'Si', 'Rh']",32.0,-231.98527036,0.011120195727539084,0.0,
24968,Br2Ce6S16Si4,mp-669378,Ce3Si2S8Br,"['Ce', 'Si', 'S', 'Br']",28.0,-167.40998964,0.12595898380440929,0.0,
12060,Ce6Cl2S16Si4,mp-542133,Ce3Si2S8Cl,"['Ce', 'Si', 'S', 'Cl']",28.0,-168.50675497,0.09588588730189684,0.0,
24913,Ce6N22Si12,mp-541712,Ce3Si6N11,"['Ce', 'Si', 'N']",40.0,-334.12374428,0.01847052874219024,1.7763568394002505e-15,
25741,Ag2Ce6Se14Si2,mp-18071,Ce3SiAgSe7,"['Ce', 'Si', 'Ag', 'Se']",24.0,-131.88400195,0.021810633471679886,0.0,
6712,Ce12I12Si4,mp-1214037,Ce3SiI3,"['Ce', 'Si', 'I']",28.0,-140.57439893,0.05731188014153066,0.0,
31548,Ce6Pd10Si2,mp-30155,Ce3SiPd5,"['Ce', 'Si', 'Pd']",18.0,-113.43309766,0.0,0.0,
23153,Ce6Pt10Si2,mp-569913,Ce3SiPt5,"['Ce', 'Si', 'Pt']",18.0,-126.9846146,0.008391175731777167,0.0,
6636,Ce3Sn1,mp-20735,Ce3Sn,"['Ce', 'Sn']",4.0,-23.46121514,0.0,0.0,
17497,Ce6Ir8Sn26,mp-1200449,Ce3Sn13Ir4,"['Ce', 'Sn', 'Ir']",40.0,-230.44909323,0.0,0.0,
1823,Ce3Sn7,mp-28416,Ce3Sn7,"['Ce', 'Sn']",10.0,-51.7479903,0.0,0.0,
9322,Ce3N1Sn1,mp-1206922,Ce3SnN,"['Ce', 'Sn', 'N']",5.0,-35.03117706,0.0,0.0,
10304,Ce6Te8,mp-22422,Ce3Te4,"['Ce', 'Te']",14.0,-80.40878771,0.004290610871930944,0.0,
15458,Ce6Sb10Ti2,mp-1213815,Ce3TiSb5,"['Ce', 'Ti', 'Sb']",18.0,-108.97983137,2.6645352591003757e-15,0.0,
13186,Ce3Tl1,mp-21412,Ce3Tl,"['Ce', 'Tl']",4.0,-20.70117878,0.012410319656372515,0.0,
21233,Ce3Zn11,mp-862292,Ce3Zn11,"['Ce', 'Zn']",14.0,-35.74457629,0.008293912896903066,0.0,
30322,Ce6Zn44,mp-698212,Ce3Zn22,"['Ce', 'Zn']",50.0,-103.57128824,0.0012501690378909913,-1.4654943925052066e-14,
31785,Ce6Sb10Zr2,mp-1213800,Ce3ZrSb5,"['Ce', 'Zr', 'Sb']",18.0,-111.16422945,-5.329070518200751e-15,0.0,
22863,Ce4Er11S22,mp-1213853,Ce4(ErS2)11,"['Ce', 'Er', 'S']",37.0,-241.4948128,0.02667455821233844,-9.681144774731365e-14,
22966,Al23Ce4Ni6,mp-582245,Ce4Al23Ni6,"['Ce', 'Al', 'Ni']",33.0,-161.14260866,0.027161568778408807,0.0,
18632,Bi6Ce8,mp-23252,Ce4Bi3,"['Ce', 'Bi']",14.0,-80.63703445,0.0,0.0,
21587,Br6C8Ce8,mp-569330,Ce4C4Br3,"['Ce', 'C', 'Br']",22.0,-151.82264842,0.13767809197995629,1.2434497875801753e-14,
12599,Ce4Co2Sn5,mp-542752,Ce4Co2Sn5,"['Ce', 'Co', 'Sn']",11.0,-63.71311081,0.04992214449939958,0.0,
18620,Au1Ce4Co1Si6,mp-1226941,Ce4CoSi6Au,"['Ce', 'Co', 'Si', 'Au']",12.0,-75.62283486,0.0,0.0,
12535,Br4Ce8Ga10,mp-30944,Ce4Ga5Br2,"['Ce', 'Ga', 'Br']",22.0,-103.70822608,0.023327428381569426,0.0,
167,Ce8Ge18Rh26,mp-29776,Ce4Ge9Rh13,"['Ce', 'Ge', 'Rh']",52.0,-365.21425252,-2.4868995751603507e-14,-2.4868995751603507e-14,
12064,Ce4H11,mp-1226890,Ce4H11,"['Ce', 'H']",15.0,-68.45151179,0.006860696747396311,0.0,
19379,Ce4In21Pd10,mp-1199723,Ce4In21Pd10,"['Ce', 'In', 'Pd']",35.0,-150.7388811,0.012278264460186428,-7.993605777301127e-15,
11870,Ce8Mn2O2Se12,mp-582774,Ce4MnSe6O,"['Ce', 'Mn', 'Se', 'O']",24.0,-158.75414439,0.01183485260671091,0.0,
14472,Bi8Ce4Ni3,mp-1227331,Ce4Ni3Bi8,"['Ce', 'Ni', 'Bi']",15.0,-79.91327336,0.02905919575933158,0.0,
2886,Bi3Ce4Ni4Sb5,mp-1227577,Ce4Ni4Bi3Sb5,"['Ce', 'Ni', 'Bi', 'Sb']",16.0,-89.80896184,0.05676369154693095,0.0,
17014,Ce8Ru6,mp-570629,Ce4Ru3,"['Ce', 'Ru']",14.0,-108.34054571,0.0,0.0,
471,Ce8O8S6,mp-19976,Ce4S3O4,"['Ce', 'S', 'O']",22.0,-175.57022261,0.0,0.0,
542,Ce8N4Se6,mp-1105809,Ce4Se3N2,"['Ce', 'Se', 'N']",18.0,-138.772937,0.0,0.0,
14279,Ce4I5Si1,mp-1206019,Ce4SiI5,"['Ce', 'Si', 'I']",10.0,-48.06254166,0.07077987635839822,0.0,
14090,Ce4Rh12Si1,mp-1190081,Ce4SiRh12,"['Ce', 'Si', 'Rh']",17.0,-129.82985573,0.0,0.0,
12621,Ce16N8Te12,mp-641183,Ce4Te3N2,"['Ce', 'Te', 'N']",36.0,-253.53396889,0.05599447582031125,-1.3322676295501878e-14,
19158,Br6C12Ce10,mp-1193043,Ce5(C2Br)3,"['Ce', 'C', 'Br']",28.0,-201.92575448,0.11167456395647246,0.0,
3610,B6Ce5Fe2,mp-1105171,Ce5(FeB3)2,"['Ce', 'Fe', 'B']",13.0,-92.48057366,0.003222098269231033,0.0,
25313,Ce10In8Pt4,mp-670677,Ce5(In2Pt)2,"['Ce', 'In', 'Pt']",22.0,-120.56721065,0.0,8.881784197001252e-16,
241,Ag2Ce10Pb6,mp-1106401,Ce5AgPb3,"['Ce', 'Ag', 'Pb']",18.0,-93.82789235,0.0005910635633687988,0.0,
29091,Ag2Ce10Sn6,mp-1213880,Ce5AgSn3,"['Ce', 'Ag', 'Sn']",18.0,-98.19971299,0.0,0.0,
31809,Ce5Cu19P12,mp-21684,Ce5Cu19P12,"['Ce', 'Cu', 'P']",36.0,-191.4937995,0.025287885016552103,0.0,
28115,Ce10Cu2Pb6,mp-1189550,Ce5CuPb3,"['Ce', 'Cu', 'Pb']",18.0,-95.87008326,0.007669481084689345,0.0,
4938,Ce10Ga4Ge2,mp-1189602,Ce5Ga2Ge,"['Ce', 'Ga', 'Ge']",16.0,-88.10667976,0.011148905229549477,0.0,
16416,Ce20Ge8Ir4,mp-1214716,Ce5Ge2Ir,"['Ce', 'Ge', 'Ir']",32.0,-211.99488717,0.0,0.0,
4427,Ce20Ge8Rh4,mp-542005,Ce5Ge2Rh,"['Ce', 'Ge', 'Rh']",32.0,-205.0690971,0.0,0.0,
11034,Ce20Ge8Ru4,mp-21651,Ce5Ge2Ru,"['Ce', 'Ge', 'Ru']",32.0,-212.05330701,0.04596281649760048,0.0,
14092,Bi8Ce20Ge4,mp-1199773,Ce5GeBi2,"['Ce', 'Ge', 'Bi']",32.0,-188.0636555,0.012837047883842878,0.0,
30124,Ce20Ge4Sb8,mp-1213986,Ce5GeSb2,"['Ce', 'Ge', 'Sb']",32.0,-194.63711085,0.0,0.0,
16239,Ce20Ir16,mp-680536,Ce5Ir4,"['Ce', 'Ir']",36.0,-286.23463625,0.010582130737304851,0.0,
25700,Ce10Ni2Pb6,mp-640447,Ce5NiPb3,"['Ce', 'Ni', 'Pb']",18.0,-100.03338399,0.002571230427516724,0.0,
3059,Ce5O9,mp-760323,Ce5O9,"['Ce', 'O']",14.0,-123.21304799,0.06477530226283434,0.0,
23952,Ce5P12Ru19,mp-1203369,Ce5P12Ru19,"['Ce', 'P', 'Ru']",36.0,-302.72945153,0.00017406231770777936,0.0,
10875,Ce10Pb6,mp-1190312,Ce5Pb3,"['Ce', 'Pb']",16.0,-86.91761246,0.015983497522460866,0.0,
20010,Ce10O2Pb6,mp-510369,Ce5Pb3O,"['Ce', 'Pb', 'O']",18.0,-108.72489573,0.0,0.0,
23334,Ce10Si6,mp-570175,Ce5Si3,"['Ce', 'Si']",16.0,-100.78475281,0.0,0.0,
28793,Ce10Sn6,mp-637308,Ce5Sn3,"['Ce', 'Sn']",16.0,-91.90480178,0.0009259324511692313,-2.6645352591003757e-15,
29863,Au2Ce10Sn6,mp-1213873,Ce5Sn3Au,"['Ce', 'Sn', 'Au']",18.0,-100.95294011,0.0,0.0,
14407,Ce20Sn16,mp-21693,Ce5Sn4,"['Ce', 'Sn']",36.0,-203.5752676,0.004239935373264281,0.0,
14048,As1Ce6Mg23,mp-1192664,Ce6Mg23As,"['Ce', 'Mg', 'As']",30.0,-80.55610098,0.0,0.0,
3517,As13Ce6Ni20,mp-1214373,Ce6Ni20As13,"['Ce', 'Ni', 'As']",39.0,-238.53389352,0.0,0.0,
30602,Ce6Ni20P13,mp-1214139,Ce6Ni20P13,"['Ce', 'Ni', 'P']",39.0,-256.53560523,0.0,0.0,
17099,Ce6O19Th4,mp-676287,Ce6Th4O19,"['Ce', 'Th', 'O']",29.0,-268.95457096,0.0,0.0,
20617,C6Ce14I20,mp-568922,Ce7C3I10,"['Ce', 'C', 'I']",40.0,-212.88965649,0.010645901592773122,-5.329070518200751e-15,
17616,Ce14Ir6,mp-1106112,Ce7Ir3,"['Ce', 'Ir']",20.0,-146.68839855,0.0,0.0,
28604,Ce7O12,mp-2629,Ce7O12,"['Ce', 'O']",19.0,-167.12443419,0.029463153175884216,0.0,