,Composition,MaterialId,Reduced Formula,Elements,NSites,Corrected Energy,Decomposition Energy Per Atom All,Decomposition Energy Per Atom MP,Directory
16325,Al8Fe4O36Si10,mp-1204107,Al4Fe2Si5O18,"['Al', 'Fe', 'Si', 'O']",58.0,-442.53798544,0.0,0.0,
1758,Al4Ge2W3,mp-1228701,Al4Ge2W3,"['Al', 'Ge', 'W']",9.0,-63.98385642,0.0,0.0,
9750,Ag1Al4In1Se8,mp-1228721,Al4InAgSe8,"['Al', 'In', 'Ag', 'Se']",14.0,-58.6853489,0.002833418475163718,0.0,
15636,Al32Ni24,mp-16515,Al4Ni3,"['Al', 'Ni']",56.0,-293.77384127,0.0,0.0,
11313,Al12Tc3,mp-1104047,Al4Tc,"['Al', 'Tc']",15.0,-81.61319898,0.00031676396354107794,0.0,
21059,Al53Fe17Si12,mp-1229054,Al53Fe17Si12,"['Al', 'Fe', 'Si']",82.0,-433.08580219,-8.881784197001252e-16,-8.881784197001252e-16,
24343,Al10B2O18,mp-3281,Al5BO9,"['Al', 'B', 'O']",30.0,-228.51016355,8.008619792221339e-06,0.0,
7993,Al20Co8,mp-196,Al5Co2,"['Al', 'Co']",28.0,-144.68345725,0.00018743551199751352,0.0,
3091,Al5Cu1S8,mp-35267,Al5CuS8,"['Al', 'Cu', 'S']",14.0,-69.80203742,2.540767438574676e-05,0.0,
11289,Al10Mo2,mp-568607,Al5Mo,"['Al', 'Mo']",12.0,-62.05799673,0.03589021530497316,-8.881784197001252e-16,
17321,Al20Rh8,mp-1791,Al5Rh2,"['Al', 'Rh']",28.0,-154.57431245,1.0132254466554969e-06,0.0,
28114,Al10W2,mp-30337,Al5W,"['Al', 'W']",12.0,-65.30123216,0.0,0.0,
23736,Al12B10F6O30,mp-6738,Al6B5(O5F)3,"['Al', 'B', 'O', 'F']",58.0,-438.07296918,1.8715646551648035e-05,0.0,
29405,Al6Cd4O12S1,mp-9203,Al6Cd4SO12,"['Al', 'Cd', 'S', 'O']",23.0,-143.46262825,2.5230129088171793e-06,-2.6645352591003757e-15,
9501,Al6Co1Cu3,mp-1228194,Al6CoCu3,"['Al', 'Co', 'Cu']",10.0,-44.89615805,0.0013910461962893805,0.0,
5705,Al12Ru2,mp-16529,Al6Ru,"['Al', 'Ru']",14.0,-68.10698602,0.0005739094252232846,0.0,
19575,Al14S24Tl6,mp-28759,Al7(TlS4)3,"['Al', 'Tl', 'S']",44.0,-209.44198454,1.7658114348506615e-07,0.0,
14023,Al28Co4Cu8,mp-17856,Al7CoCu2,"['Al', 'Co', 'Cu']",40.0,-177.23500772,0.0006425987480467299,0.0,
15791,Al7Bi4Cr1O18,mp-1228228,Al7Cr(Bi2O9)2,"['Al', 'Cr', 'Bi', 'O']",30.0,-209.15580136,0.0007071833606770994,0.0,
23824,Al28Cu8Rh4,mp-1214887,Al7Cu2Rh,"['Al', 'Cu', 'Rh']",40.0,-182.32685042,0.0,0.0,
11062,Al28Cu8Ru4,mp-1214866,Al7Cu2Ru,"['Al', 'Cu', 'Ru']",40.0,-188.49502243,0.0,0.0,
24375,Al28Cu8Fe4,mp-4689,Al7FeCu2,"['Al', 'Fe', 'Cu']",40.0,-181.93369268,9.327565136718619e-05,0.0,
22664,Al32O84Pb36,mp-13875,Al8(Pb3O7)3,"['Al', 'Pb', 'O']",152.0,-994.64735999,0.0,0.0,
25370,Al8Mo3,mp-2733,Al8Mo3,"['Al', 'Mo']",11.0,-66.19477555,0.0006813598011357058,-8.881784197001252e-16,
26755,Al18Co4,mp-16488,Al9Co2,"['Al', 'Co']",22.0,-103.15506926,2.5926747158955266e-05,0.0,
7467,Al18Cr6Si2,mp-1214838,Al9Cr3Si,"['Al', 'Cr', 'Si']",26.0,-140.99719785,0.0,0.0,
11642,Al18Ir4,mp-12003,Al9Ir2,"['Al', 'Ir']",22.0,-114.32318264,0.00031031002041892464,0.0,
24833,Al18Rh4,mp-1645,Al9Rh2,"['Al', 'Rh']",22.0,-107.93389985,0.0,0.0,
8029,Ag1Al1P2Se6,mp-1228964,AlAg(PSe3)2,"['Al', 'Ag', 'P', 'Se']",10.0,-41.43295843,0.0025305699638673573,0.0,
5535,Ag4Al2,mp-985805,AlAg2,"['Al', 'Ag']",6.0,-19.27423641,0.007683798813476361,0.0,
29726,Ag15Al5,mp-1228988,AlAg3,"['Al', 'Ag']",20.0,-62.74090954,0.0010374087421873845,0.0,
26424,Ag2Al2O4,mp-9631,AlAgO2,"['Al', 'Ag', 'O']",8.0,-48.65988781,2.0340888672087942e-05,0.0,
19642,Ag2Al2S4,mp-5782,AlAgS2,"['Al', 'Ag', 'S']",8.0,-35.76132945,0.0,0.0,
27146,Ag2Al2Se4,mp-14091,AlAgSe2,"['Al', 'Ag', 'Se']",8.0,-32.09409028,0.0,0.0,
400,Ag1Al1Se4Sn1,mp-1228963,AlAgSnSe4,"['Al', 'Ag', 'Sn', 'Se']",7.0,-28.08164545,0.00016717265276167126,0.0,
458,Ag2Al2Te4,mp-14092,AlAgTe2,"['Al', 'Ag', 'Te']",8.0,-28.61004896,0.0,0.0,
26851,Al1As1,mp-2172,AlAs,"['Al', 'As']",2.0,-9.37497856,0.0002443702075192178,0.0,
16109,Al4As12Cl16Se16,mp-567734,AlAs3(SeCl)4,"['Al', 'As', 'Se', 'Cl']",48.0,-188.62064318,0.0001551286555985243,0.0,
21020,Al2As6Cl8S10,mp-558360,AlAs3S5Cl4,"['Al', 'As', 'S', 'Cl']",26.0,-107.82619881,0.00024168911733735143,1.7763568394002505e-15,
16046,Al1As1O4,mp-7849,AlAsO4,"['Al', 'As', 'O']",6.0,-40.11756358,2.3969576816718074e-05,-6.217248937900877e-15,
8682,Al4Au4,mp-1399,AlAu,"['Al', 'Au']",8.0,-31.24213576,5.6296983032222414e-05,0.0,
21693,Al4Au8,mp-569558,AlAu2,"['Al', 'Au']",12.0,-44.97299106,0.0022351683194985483,0.0,
3180,Al4Au16,mp-1490,AlAu4,"['Al', 'Au']",20.0,-71.58325653,6.637611328130788e-06,0.0,
26605,Al2B2Mo2,mp-7574,AlBMo,"['Al', 'B', 'Mo']",6.0,-45.24562371,0.0002684390804041925,0.0,
7706,Al4B4H20N4O36P8,mp-24757,AlBP2H5NO9,"['Al', 'B', 'P', 'H', 'N', 'O']",76.0,-504.45118138,0.00039043011225547986,2.4868995751603507e-14,
18025,Al8B8O32Pb8,mp-558137,AlBPbO4,"['Al', 'B', 'Pb', 'O']",56.0,-401.78296455,-7.105427357601002e-15,-7.105427357601002e-15,
15693,Al2B2W2,mp-1070916,AlBW,"['Al', 'B', 'W']",6.0,-48.5953859,0.0003218069905592813,0.0,
7503,Al4Bi4Cl24,mp-672273,AlBiCl6,"['Al', 'Bi', 'Cl']",32.0,-115.02405412,0.00491289767822245,0.0,
2530,Al4Bi4Cl16S4,mp-561350,AlBiSCl4,"['Al', 'Bi', 'S', 'Cl']",28.0,-109.08268809,0.0003154522126118664,0.0,
9909,Al4Bi4Cl16Se4,mp-637206,AlBiSeCl4,"['Al', 'Bi', 'Se', 'Cl']",28.0,-106.68591435,0.0021263041678292183,0.0,
12424,Al4Bi4Cl16Te4,mp-628665,AlBiTeCl4,"['Al', 'Bi', 'Te', 'Cl']",28.0,-104.21116162,0.0011350795591518192,0.0,
2175,Al4Br12,mp-23288,AlBr3,"['Al', 'Br']",16.0,-52.50646633,0.0002832742663572141,0.0,
11282,Al4Br4O4,mp-1214833,AlBrO,"['Al', 'Br', 'O']",12.0,-67.43554735,0.00018328968099012855,0.0,
3036,Al4C12Cl24N12,mp-607454,AlC3(NCl2)3,"['Al', 'C', 'N', 'Cl']",52.0,-293.19972669,0.003479081269532003,0.0,
19807,Al2Cd2Cl8,mp-1102961,AlCdCl4,"['Al', 'Cd', 'Cl']",12.0,-39.82842518,0.0036684613590356463,-1.3322676295501878e-14,
29249,Al2Cl6,mp-25469,AlCl3,"['Al', 'Cl']",8.0,-30.62487597,0.001102455959472337,0.0,
1925,Al2Cl2O2,mp-27863,AlClO,"['Al', 'Cl', 'O']",6.0,-35.19328662,0.00020623797526031495,0.0,
3243,Al1Co1,mp-284,AlCo,"['Al', 'Co']",2.0,-12.07684668,0.0,0.0,
30334,Al1Cr2,mp-1699,AlCr2,"['Al', 'Cr']",3.0,-23.41997217,0.0,0.0,
29199,Al2C2Cr4,mp-9956,AlCr2C,"['Al', 'Cr', 'C']",8.0,-65.94314,0.0018136538696289506,0.0,
2737,Al1B4Cr3,mp-637575,AlCr3B4,"['Al', 'Cr', 'B']",8.0,-62.98712226,1.9465577392629996e-05,0.0,
27150,Ag1Al1Cr4S8,mp-1228999,AlCr4AgS8,"['Al', 'Cr', 'Ag', 'S']",14.0,-88.43281602,0.0,0.0,
25692,Al1Cr4Cu1S8,mp-1228960,AlCr4CuS8,"['Al', 'Cr', 'Cu', 'S']",14.0,-90.20652531,0.0,0.0,
18831,Al1Cr4Cu1Se8,mp-1229004,AlCr4CuSe8,"['Al', 'Cr', 'Cu', 'Se']",14.0,-82.43356729,0.0003387430273438241,0.0,
28402,Al2Cr2Fe2O8,mp-1229097,AlCrFeO4,"['Al', 'Cr', 'Fe', 'O']",14.0,-104.91470655,0.0,0.0,
28667,Al1Cr1Ru2,mp-862781,AlCrRu2,"['Al', 'Cr', 'Ru']",4.0,-33.374165,0.0023621466064458474,0.0,
19943,Al5Cu5,mp-2500,AlCu,"['Al', 'Cu']",10.0,-41.35819198,0.0005867468242186646,0.0,
31374,Al2Cu6,mp-12802,AlCu3,"['Al', 'Cu']",8.0,-33.6020976,0.001000274060058537,0.0,
2567,Al1Au2Cu1,mp-867306,AlCuAu2,"['Al', 'Cu', 'Au']",4.0,-15.42344058,0.0025680948223878453,0.0,
20214,Al2Br8Cu2,mp-1102536,AlCuBr4,"['Al', 'Cu', 'Br']",12.0,-39.0757152,0.006985838130693978,-1.2878587085651816e-14,
29305,Al2Cl8Cu2,mp-28020,AlCuCl4,"['Al', 'Cu', 'Cl']",12.0,-44.48861566,0.004131955599768311,-1.4210854715202004e-14,
27510,Al1Cu1Ge1Se4,mp-1228980,AlCuGeSe4,"['Al', 'Cu', 'Ge', 'Se']",7.0,-29.76507486,0.0,0.0,
8295,Al1Cu1O2,mp-3748,AlCuO2,"['Al', 'Cu', 'O']",4.0,-26.03572221,1.791093994185644e-05,0.0,
16954,Al1Cu1Pt2,mp-12550,AlCuPt2,"['Al', 'Cu', 'Pt']",4.0,-22.77760872,0.0008054158251953325,0.0,
5793,Al2Cu2S4,mp-4979,AlCuS2,"['Al', 'Cu', 'S']",8.0,-38.70696449,8.286129638701567e-05,0.0,
4369,Al2Cu2Se4,mp-8016,AlCuSe2,"['Al', 'Cu', 'Se']",8.0,-34.67734929,0.0,0.0,
12648,Al2Cu2S8Sn2,mp-1228961,AlCuSnS4,"['Al', 'Cu', 'Sn', 'S']",14.0,-65.5254359,0.00062088978097119,0.0,
18785,Al1Cu1Se4Sn1,mp-1229027,AlCuSnSe4,"['Al', 'Cu', 'Sn', 'Se']",7.0,-29.35949645,0.0015487094261530387,0.0,
27719,Al2Cu2Te4,mp-8017,AlCuTe2,"['Al', 'Cu', 'Te']",8.0,-30.97878639,0.0,0.0,
26498,Al2F6,mp-468,AlF3,"['Al', 'F']",8.0,-47.15098349,1.1520373535134354e-06,0.0,
642,Al1Fe1,mp-2658,AlFe,"['Al', 'Fe']",2.0,-12.86937107,0.0013615421789552329,0.0,
29330,Al1Fe2Si1,mp-867878,AlFe2Si,"['Al', 'Fe', 'Si']",4.0,-27.96102359,0.0014459190588382853,0.0,
22865,Al1Fe2W1,mp-862288,AlFe2W,"['Al', 'Fe', 'W']",4.0,-34.47696017,0.043988758818581886,0.0,
20047,Al1Fe3,mp-1183162,AlFe3,"['Al', 'Fe']",4.0,-29.95121216,0.0006818194665525468,0.0,
19475,Al1C1Fe3,mp-22793,AlFe3C,"['Al', 'Fe', 'C']",5.0,-39.18536946,0.003626502986329605,0.0,
13342,Al1Fe3H1,mp-1206123,AlFe3H,"['Al', 'Fe', 'H']",5.0,-33.39682951,0.0,0.0,
22034,Al1Co2Fe1,mp-10884,AlFeCo2,"['Al', 'Fe', 'Co']",4.0,-27.91761698,0.0,0.0,
1073,Al4Fe4O20P4,mp-17477,AlFePO5,"['Al', 'Fe', 'P', 'O']",32.0,-234.74144369,0.00018369785888694423,0.0,
15900,Al1Fe1Rh2,mp-861953,AlFeRh2,"['Al', 'Fe', 'Rh']",4.0,-29.32790657,1.2168992920003063e-05,0.0,
20146,Al4Cl16Ga4,mp-541111,AlGaCl4,"['Al', 'Ga', 'Cl']",24.0,-87.64927348,0.0008701001578810263,-1.4210854715202004e-14,
18031,Al1Co2Ga1,mp-1228893,AlGaCo2,"['Al', 'Ga', 'Co']",4.0,-22.78401969,0.0,0.0,
9173,Al1Ga1Ni6,mp-1228918,AlGaNi6,"['Al', 'Ga', 'Ni']",8.0,-44.35635102,0.0006989089074709298,0.0,
5441,Al3Ge9Mo6,mp-1228992,AlGe3Mo2,"['Al', 'Ge', 'Mo']",18.0,-121.90550658,0.0,0.0,
1754,Al3Ge3Mo3,mp-1228900,AlGeMo,"['Al', 'Ge', 'Mo']",9.0,-60.12979529,0.0,-6.217248937900877e-15,
23362,Al4F20H40N8O4,mp-24618,AlH10N2OF5,"['Al', 'H', 'N', 'O', 'F']",76.0,-389.99351221,3.308357507947335e-07,1.865174681370263e-14,
14378,Al8F8H80O72S8,mp-730446,AlH10SO9F,"['Al', 'H', 'S', 'O', 'F']",176.0,-957.00193713,9.769962616701378e-15,0.0,
20622,Al4H44O40S4,mp-722527,AlH11SO10,"['Al', 'H', 'S', 'O']",92.0,-501.47085801,0.0016128821093754908,0.0,
15186,Al2Cl6H24O12,mp-23743,AlH12(ClO2)3,"['Al', 'H', 'Cl', 'O']",44.0,-212.45748763,0.0,0.0,
12539,Al2H24N6O30,mp-1203296,AlH12(NO5)3,"['Al', 'H', 'N', 'O']",62.0,-347.26212227,0.0,0.0,
24851,Al2H28N2O28Se2,mp-1197821,AlH14SeNO14,"['Al', 'H', 'Se', 'N', 'O']",62.0,-331.39863497,0.00044412000252069816,0.0,
30489,Al2F12H30O12,mp-1229104,AlH15(OF)6,"['Al', 'H', 'O', 'F']",56.0,-278.09042028,-1.865174681370263e-14,-1.865174681370263e-14,
2757,Al4Cl12H60N20,mp-699469,AlH15N5Cl3,"['Al', 'H', 'N', 'Cl']",96.0,-470.96754894,0.0,0.0,
10539,Al2F6H4O4Pb2,mp-643387,AlH2PbO2F3,"['Al', 'H', 'Pb', 'O', 'F']",18.0,-100.17468838,0.0012587673003476851,0.0,
18231,Al4H12,mp-1106356,AlH3,"['Al', 'H']",16.0,-55.8022108,5.887509460489326e-05,0.0,
18486,Al8Cl24H24N8,mp-759356,AlH3NCl3,"['Al', 'H', 'N', 'Cl']",64.0,-290.23128667,0.0011629898059082322,-1.687538997430238e-14,
21270,Al4F16H16N4,mp-696815,AlH4NF4,"['Al', 'H', 'N', 'F']",40.0,-212.32965877,0.00016417955371039739,0.0,
28858,Al2H10O16Se4,mp-1214960,AlH5(SeO4)2,"['Al', 'H', 'Se', 'O']",32.0,-174.78684871,0.0010496954638572475,0.0,
1988,Al2Br2H12O8,mp-1192001,AlH6BrO4,"['Al', 'H', 'Br', 'O']",24.0,-124.23956346,0.0016540941145786192,0.0,
7520,Al2H12I2O8,mp-1191939,AlH6IO4,"['Al', 'H', 'I', 'O']",24.0,-122.86539756,0.002191646263020708,0.0,
15380,Al8Cl24H48N16,mp-740718,AlH6N2Cl3,"['Al', 'H', 'N', 'Cl']",96.0,-454.05969391,0.001648182537435261,0.0,
12702,Al1F3H6N2,mp-1228986,AlH6N2F3,"['Al', 'H', 'N', 'F']",12.0,-63.8436399,0.0026713403238929345,0.0,
15631,Al8C16Cl32H56S8,mp-1198123,AlH7C2SCl4,"['Al', 'H', 'C', 'S', 'Cl']",120.0,-534.83351173,0.0005313597695302263,-7.993605777301127e-15,
19723,Al2H2O4,mp-625054,AlHO2,"['Al', 'H', 'O']",8.0,-52.48897205,5.254694213885358e-05,0.0,
13631,Al2H2O10S2,mp-1105277,AlHSO5,"['Al', 'H', 'S', 'O']",16.0,-101.34961362,0.00010290317504857427,0.0,
2780,Al8Cl32Hg16Sb8,mp-568001,AlHg2SbCl4,"['Al', 'Hg', 'Sb', 'Cl']",64.0,-188.30348319,3.9649405517483416e-05,0.0,
1794,Al4I12,mp-30930,AlI3,"['Al', 'I']",16.0,-44.00588175,0.0,0.0,
11552,Al2Cl12I2,mp-27935,AlICl6,"['Al', 'I', 'Cl']",16.0,-46.55356857,3.72716870113976e-05,0.0,
19271,Al4Br16In4,mp-1214853,AlInBr4,"['Al', 'In', 'Br']",24.0,-76.79645737,0.0055969783780929205,0.0,
3162,Al4Cl16In4,mp-638061,AlInCl4,"['Al', 'In', 'Cl']",24.0,-87.76358986,0.0025219668929032935,0.0,
27366,Al4I16In4,mp-571260,AlInI4,"['Al', 'In', 'I']",24.0,-65.69599545,0.00042021318359397597,0.0,
23580,Al6In6S18,mp-504482,AlInS3,"['Al', 'In', 'S']",30.0,-137.93706009,8.895158984412177e-05,0.0,
23030,Al6In6Se18,mp-862787,AlInSe3,"['Al', 'In', 'Se']",30.0,-122.72910414,0.0006360753789058649,0.0,
4640,Al1Ir1,mp-1885,AlIr,"['Al', 'Ir']",2.0,-14.50196539,0.0,0.0,
29877,Al2Mo6,mp-259,AlMo3,"['Al', 'Mo']",8.0,-74.51784381,9.704719238001758e-06,0.0,
669,Al4Mo4O36P8,mp-557607,AlMoP2O9,"['Al', 'Mo', 'P', 'O']",52.0,-383.53624584,2.3813285755736047e-05,0.0,
14709,Al2N2,mp-661,AlN,"['Al', 'N']",4.0,-29.77972953,0.008957017982177184,0.0,
22473,Al1Ni1,mp-1487,AlNi,"['Al', 'Ni']",2.0,-10.8433925,7.088623046769271e-06,0.0,
27643,Al4B4Ni8O20,mp-1214877,AlNi2BO5,"['Al', 'Ni', 'B', 'O']",36.0,-236.35899865,0.0006816509982643382,0.0,
17464,Al1Ni3,mp-2593,AlNi3,"['Al', 'Ni']",4.0,-22.82236773,0.0003216112011719119,0.0,
25152,Al2Ge2Ni8,mp-1228880,AlNi4Ge,"['Al', 'Ni', 'Ge']",12.0,-68.0232404,0.0,0.0,
19733,Ag4Al2F14Ni2,mp-1214829,AlNiAg2F7,"['Al', 'Ni', 'Ag', 'F']",22.0,-100.49576167,0.0011572149067831106,0.0,
22256,Al1Ge1Ni1,mp-1228803,AlNiGe,"['Al', 'Ni', 'Ge']",3.0,-15.37454602,0.0,0.0,
8794,Al1P1,mp-1550,AlP,"['Al', 'P']",2.0,-10.37842272,8.774659790056205e-05,0.0,
5892,Al8I72P16,mp-28046,AlP2I9,"['Al', 'P', 'I']",96.0,-254.52200668,0.003228728329259134,0.0,
3279,Al4Cl36N12P12,mp-683949,AlP3(NCl3)3,"['Al', 'P', 'N', 'Cl']",64.0,-298.05608905,0.007274258618163998,0.0,
4531,Al8C16Cl32H64P8,mp-569751,AlPH8(CCl2)2,"['Al', 'P', 'H', 'C', 'Cl']",128.0,-578.80993103,0.00012267017578082573,0.0,
13187,Al2C6Cl6H18P2,mp-1196119,AlPH9(CCl)3,"['Al', 'P', 'H', 'C', 'Cl']",34.0,-164.40109677,0.00014186099839097466,0.0,
20890,Al4I32P4,mp-568423,AlPI8,"['Al', 'P', 'I']",40.0,-99.03664937,0.0019985347319337876,0.0,
29108,Al1O4P1,mp-7848,AlPO4,"['Al', 'P', 'O']",6.0,-44.92752595,1.203242187486353e-05,0.0,
7629,Al3P3Pd12,mp-1228856,AlPPd4,"['Al', 'P', 'Pd']",18.0,-101.55583588,0.005880427438257563,-9.769962616701378e-15,
1586,Al1P1Pt5,mp-1025271,AlPPt5,"['Al', 'P', 'Pt']",7.0,-43.7245868,0.0017465416503910092,0.0,
27218,Al1P1S4,mp-1071955,AlPS4,"['Al', 'P', 'S']",6.0,-29.23849615,0.0,0.0,
833,Al4Pd4,mp-7189,AlPd,"['Al', 'Pd']",8.0,-43.01400248,0.0,0.0,
20855,Al4Pd8,mp-2824,AlPd2,"['Al', 'Pd']",12.0,-66.3952973,0.0,0.0,
23416,Al4Pd20,mp-605663,AlPd5,"['Al', 'Pd']",24.0,-129.68461687,0.0005530985563142465,0.0,
25577,Al1I2Pd5,mp-27393,AlPd5I2,"['Al', 'Pd', 'I']",8.0,-36.12870479,0.0010058448458858393,0.0,
24998,Al4Pt4,mp-10904,AlPt,"['Al', 'Pt']",8.0,-47.60623103,0.0,0.0,
18612,Al4Pt8,mp-16526,AlPt2,"['Al', 'Pt']",12.0,-73.79345629,1.9771040038918386e-05,0.0,
19032,Al4Pt12,mp-607111,AlPt3,"['Al', 'Pt']",16.0,-98.91615561,0.0029118785314938833,0.0,
13361,Al2Re2,mp-1228815,AlRe,"['Al', 'Re']",4.0,-33.64332561,2.9612819824720304e-05,0.0,
6380,Al1Re2,mp-10909,AlRe2,"['Al', 'Re']",3.0,-29.42332618,0.0033449578222661813,0.0,
21581,Al1Re1Si1,mp-1228809,AlReSi,"['Al', 'Re', 'Si']",3.0,-23.06203312,0.004748807005209521,0.0,
25408,Al1Rh1,mp-364,AlRh,"['Al', 'Rh']",2.0,-13.28782749,0.0005087861279298167,0.0,
27099,Al1Ru1,mp-542569,AlRu,"['Al', 'Ru']",2.0,-14.36692027,0.0020276121923830104,0.0,
20265,Al2Cl14S2,mp-555805,AlSCl7,"['Al', 'S', 'Cl']",18.0,-56.24431986,0.0026247640440542064,3.1086244689504383e-15,
4399,Al1Sb1,mp-2624,AlSb,"['Al', 'Sb']",2.0,-8.19357291,9.775316161864112e-06,0.0,
21457,Al4Cl16Sb8Se8,mp-1194909,AlSb2(SeCl2)2,"['Al', 'Sb', 'Se', 'Cl']",36.0,-138.80656493,0.0002790496603735093,0.0,
22759,Al8Cl32Sb16Te16,mp-567743,AlSb2(TeCl2)2,"['Al', 'Sb', 'Te', 'Cl']",72.0,-267.63957996,0.0,0.0,
8979,Al4Br4Cl16Sb8Te8,mp-1204489,AlSb2Te2BrCl4,"['Al', 'Sb', 'Te', 'Br', 'Cl']",40.0,-143.42496177,0.010010284210689502,0.0,
13998,Al1O4Sb1,mp-676861,AlSbO4,"['Al', 'Sb', 'O']",6.0,-40.17862249,0.0074491335432878,0.0,
8185,Al2Cl14Se2,mp-1205403,AlSeCl7,"['Al', 'Se', 'Cl']",18.0,-56.04712176,0.002912625068362651,3.1086244689504383e-15,
27188,Al4C12Cl8H36O4Si4,mp-24308,AlSiH9C3Cl2O,"['Al', 'Si', 'H', 'C', 'Cl', 'O']",68.0,-351.55384452,3.219728747261286e-05,-9.769962616701378e-15,
21541,Al3Mo3Si3,mp-1228015,AlSiMo,"['Al', 'Si', 'Mo']",9.0,-63.79046256,0.0,0.0,
7405,Al1Mo6Si1,mp-1228032,AlSiMo6,"['Al', 'Si', 'Mo']",8.0,-76.51295329,0.006185470936889814,0.0,
18659,Al2Ni4Si2,mp-1228043,AlSiNi2,"['Al', 'Si', 'Ni']",8.0,-46.08042189,0.0,0.0,
5752,Al1Ni6Si1,mp-1228041,AlSiNi6,"['Al', 'Si', 'Ni']",8.0,-47.40729714,0.0015623562487796505,0.0,
14306,Al1Ru2Si1,mp-862778,AlSiRu2,"['Al', 'Si', 'Ru']",4.0,-30.57414969,0.013562778153076493,0.0,
24441,Al2Si2Te6,mp-31220,AlSiTe3,"['Al', 'Si', 'Te']",10.0,-39.88163495,-3.552713678800501e-15,0.0,
21602,Al1Tc2,mp-1018166,AlTc2,"['Al', 'Tc']",3.0,-25.71008889,0.0011844101204427915,0.0,
29841,Al4Cl28Te4,mp-573751,AlTeCl7,"['Al', 'Te', 'Cl']",36.0,-116.18989387,0.00018997333767378777,0.0,
4413,Al2I14Te2,mp-29407,AlTeI7,"['Al', 'Te', 'I']",18.0,-42.05723247,4.912215006491749e-05,-4.440892098500626e-16,
14437,Al1Mo2O8Tl1,mp-18733,AlTl(MoO4)2,"['Al', 'Tl', 'Mo', 'O']",12.0,-81.93053892,1.0189550776473766e-06,0.0,
16324,Al2F10Tl4,mp-1539038,AlTl2F5,"['Al', 'Tl', 'F']",16.0,-79.04686403,0.0,0.0,
26588,Al4Br16Tl4,mp-567878,AlTlBr4,"['Al', 'Tl', 'Br']",24.0,-77.27432052,0.00026960144124377194,0.0,
8590,Al4Cl16Tl4,mp-567716,AlTlCl4,"['Al', 'Tl', 'Cl']",24.0,-88.29620008,0.00038755261555945,0.0,
19996,Al2F8Tl2,mp-3751,AlTlF4,"['Al', 'Tl', 'F']",12.0,-63.2145733,5.489121905632999e-05,-1.9539925233402755e-14,
7905,Al4I16Tl4,mp-607829,AlTlI4,"['Al', 'Tl', 'I']",24.0,-66.09714922,0.0005139825935871478,0.0,
5983,Al8S16Tl8,mp-985477,AlTlS2,"['Al', 'Tl', 'S']",32.0,-143.5125053,0.0001743911071780957,0.0,
28787,Al8Se16Tl8,mp-863762,AlTlSe2,"['Al', 'Tl', 'Se']",32.0,-128.96691635,0.00018563179321340328,0.0,
22738,Al2O16Si6Tl2,mp-1228177,AlTlSi3O8,"['Al', 'Tl', 'Si', 'O']",26.0,-193.09680836,0.0013837698828123024,0.0,
8768,Al6O24Si6Tl6,mp-1228209,AlTlSiO4,"['Al', 'Tl', 'Si', 'O']",42.0,-293.35032862,0.000249697570690266,6.217248937900877e-15,
24834,Al1V1,mp-1228001,AlV,"['Al', 'V']",2.0,-13.28301903,0.007247942733154211,0.0,
14535,Al2C2V4,mp-1025497,AlV2C,"['Al', 'V', 'C']",8.0,-66.40754805,0.001632558813476237,0.0,
2519,Al2O8V4,mp-1281387,AlV2O4,"['Al', 'V', 'O']",14.0,-109.82427247,0.0,0.0,
6591,Al2V6,mp-1387,AlV3,"['Al', 'V']",8.0,-63.0685394,0.009615567935180813,0.0,
3012,Al1Ga1V6,mp-1228807,AlV6Ga,"['Al', 'V', 'Ga']",8.0,-62.52669909,0.008512970805656828,0.0,
3129,Al1Ge1V6,mp-1228829,AlV6Ge,"['Al', 'V', 'Ge']",8.0,-64.75912306,0.0035566983425905363,0.0,
29577,Al2Au4V18,mp-1228971,AlV9Au2,"['Al', 'V', 'Au']",24.0,-186.16986853,0.00950938017763825,0.0,
31652,Al1Co2V1,mp-4955,AlVCo2,"['Al', 'V', 'Co']",4.0,-28.77012372,0.00020521883422830456,0.0,
7407,Al1Fe2V1,mp-5778,AlVFe2,"['Al', 'V', 'Fe']",4.0,-31.4845748,3.5880688476375155e-05,0.0,
16304,Al4Mo4O28V4,mp-20014,AlVMoO7,"['Al', 'V', 'Mo', 'O']",40.0,-292.80339944,6.180965430147012e-05,-1.4210854715202004e-14,
11290,Al6O24V6,mp-18827,AlVO4,"['Al', 'V', 'O']",36.0,-269.7255205,0.020377273776576388,0.0,
23370,Al1Os2V1,mp-862700,AlVOs2,"['Al', 'V', 'Os']",4.0,-37.17798075,0.001308518351235577,0.0,
4204,Al1Ru2V1,mp-866001,AlVRu2,"['Al', 'V', 'Ru']",4.0,-33.94492576,7.570416503988042e-05,0.0,
5577,Al1O4W1,mp-1182867,AlWO4,"['Al', 'W', 'O']",6.0,-45.40580624,5.432778321434739e-06,0.0,
5272,Al2Cr2S8Zn2,mp-1228837,AlZnCrS4,"['Al', 'Zn', 'Cr', 'S']",14.0,-74.88387629,6.996654585478268e-06,0.0,
14774,Al1Ir2Zn1,mp-862705,AlZnIr2,"['Al', 'Zn', 'Ir']",4.0,-25.10639495,0.009247972705078489,0.0,
27053,Al1Rh2Zn1,mp-866033,AlZnRh2,"['Al', 'Zn', 'Rh']",4.0,-22.89143753,0.007673263679198961,0.0,
8091,As2,mp-11,As,['As'],2.0,-9.31823681,0.0014317124926757074,0.0,
1126,As2Br6F12,mp-28159,As(BrF2)3,"['As', 'Br', 'F']",20.0,-69.95418562,5.44793759762463e-05,0.0,
11106,As2F12I6,mp-27445,As(IF2)3,"['As', 'I', 'F']",20.0,-70.44439198,0.00045171854557057856,0.0,
8642,As2F12I4,mp-558244,As(IF3)2,"['As', 'I', 'F']",18.0,-67.28823418,0.0016604112239582136,0.0,
11996,As16F96S64,mp-27578,As(S2F3)2,"['As', 'S', 'F']",176.0,-755.52983451,0.0,0.0,