,Composition,MaterialId,Reduced Formula,Elements,NSites,Corrected Energy,Decomposition Energy Per Atom All,Decomposition Energy Per Atom MP,Directory
5415,Cs12Fe4S12,mp-1193282,Cs3FeS3,"['Cs', 'Fe', 'S']",28.0,-119.43592311,0.0014877575809153498,0.0,
25591,Cs12Fe4Se12,mp-1194302,Cs3FeSe3,"['Cs', 'Fe', 'Se']",28.0,-110.93171778,0.005027247603236695,0.0,
12106,Cs18F54Ga12,mp-556103,Cs3Ga2F9,"['Cs', 'Ga', 'F']",84.0,-387.61767339,0.00011226630675231775,-1.7763568394002505e-15,
7994,As16Cs24Ga8,mp-541678,Cs3GaAs2,"['Cs', 'Ga', 'As']",48.0,-142.46122308,7.161592773430314e-05,0.0,
11364,Cs3F6Ga1,mp-1113117,Cs3GaF6,"['Cs', 'Ga', 'F']",10.0,-44.73278614,-1.7763568394002505e-15,-1.7763568394002505e-15,
22149,Cs12Ga4O12,mp-770463,Cs3GaO3,"['Cs', 'Ga', 'O']",28.0,-124.15978612,0.00015121069754187033,0.0,
4344,Cs24Ga8P16,mp-1201960,Cs3GaP2,"['Cs', 'Ga', 'P']",48.0,-151.5013249,0.00019905451253254824,0.0,
22116,Cs12Ga4Se12,mp-542448,Cs3GaSe3,"['Cs', 'Ga', 'Se']",28.0,-95.01091589,0.0005303585777061137,-3.1086244689504383e-15,
1646,Cs12Gd4O32P8,mp-1194926,Cs3Gd(PO4)2,"['Cs', 'Gd', 'P', 'O']",56.0,-411.38377176,1.7763568394002505e-15,0.0,
7259,Au2Cs6Ge8,mp-510341,Cs3Ge4Au,"['Cs', 'Ge', 'Au']",16.0,-53.2841623,0.0,0.0,
3552,As4Cs12Ge4Se20,mp-582708,Cs3GeAsSe5,"['Cs', 'Ge', 'As', 'Se']",40.0,-149.57807355,0.0,0.0,
10502,Cs12Ge4Se12,mp-1193194,Cs3GeSe3,"['Cs', 'Ge', 'Se']",28.0,-98.88709954,0.0,-3.1086244689504383e-15,
28550,Cs12Ge4Te12,mp-1193606,Cs3GeTe3,"['Cs', 'Ge', 'Te']",28.0,-89.87290338,0.0,0.0,
6238,Cs6F24H2S4,mp-1226414,Cs3H(SF6)2,"['Cs', 'H', 'S', 'F']",36.0,-148.50391703,0.006929132894695655,0.0,
7254,Cs6H2O16Se4,mp-1226195,Cs3H(SeO4)2,"['Cs', 'H', 'Se', 'O']",28.0,-140.98371081,0.0004015330482705082,0.0,
14494,Cs6F6H24N8,mp-1196740,Cs3H12N4F3,"['Cs', 'H', 'N', 'F']",44.0,-207.11444117,0.0,0.0,
5906,Cs6Cu2Hf4Te20,mp-1203208,Cs3Hf2CuTe10,"['Cs', 'Hf', 'Cu', 'Te']",32.0,-139.51080776,0.00015872127563376637,0.0,
28037,Cs6Hf4P10S36,mp-1197320,Cs3Hf2P5S18,"['Cs', 'Hf', 'P', 'S']",56.0,-293.31967354,0.00013623561383013794,1.9539925233402755e-14,
971,Br18Cs6Ho4,mp-1192709,Cs3Ho2Br9,"['Cs', 'Ho', 'Br']",28.0,-106.61256509,0.00022283404854750444,-1.7763568394002505e-15,
8688,Cs6Ho14Se24,mp-1227054,Cs3Ho7Se12,"['Cs', 'Ho', 'Se']",44.0,-233.05105298,0.002625425131613568,5.329070518200751e-15,
6491,Cl48Cs24Ho8,mp-1214360,Cs3HoCl6,"['Cs', 'Ho', 'Cl']",80.0,-320.0468514,-1.7763568394002505e-15,-1.7763568394002505e-15,
23058,Cs12Ho4O12,mp-768211,Cs3HoO3,"['Cs', 'Ho', 'O']",28.0,-142.21801146,0.0196669398484568,0.0,
3851,Cs6I2O2,mp-1206444,Cs3IO,"['Cs', 'I', 'O']",10.0,-30.77199019,0.0,0.0,
12450,Cs12I4O20,mp-1213723,Cs3IO5,"['Cs', 'I', 'O']",36.0,-155.76548322,0.0,0.0,
705,Cl18Cs6In4,mp-27172,Cs3In2Cl9,"['Cs', 'In', 'Cl']",28.0,-92.9308921,0.00011127108678854469,3.1086244689504383e-15,
8017,Cs6In6O32P8,mp-1232408,Cs3In3(PO4)4,"['Cs', 'In', 'P', 'O']",52.0,-333.85026848,3.7378426982925816e-05,2.6645352591003757e-15,
4670,Br6Cs3In1,mp-1112651,Cs3InBr6,"['Cs', 'In', 'Br']",10.0,-29.35504734,0.037255895272459316,0.0,
16472,Cs3F6In1,mp-1112970,Cs3InF6,"['Cs', 'In', 'F']",10.0,-43.77462072,-1.7763568394002505e-15,-1.7763568394002505e-15,
24160,Cs12In4O12,mp-28381,Cs3InO3,"['Cs', 'In', 'O']",28.0,-118.32232546,0.00010942440220418348,0.0,
2486,Cs24In8P16,mp-1198384,Cs3InP2,"['Cs', 'In', 'P']",48.0,-145.5122703,0.0,0.0,
10142,Cs3K5Mo8O44P8,mp-1227037,Cs3K5Mo8(P2O11)4,"['Cs', 'K', 'Mo', 'P', 'O']",68.0,-466.48581757,0.0,0.0,
26411,Cs12La4Mo12O48,mp-1214521,Cs3La(MoO4)3,"['Cs', 'La', 'Mo', 'O']",76.0,-511.78500448,0.00020871341077377537,0.0,
16090,Br24Cs12La4,mp-1213905,Cs3LaBr6,"['Cs', 'La', 'Br']",40.0,-146.95770247,-1.7763568394002505e-15,-1.7763568394002505e-15,
23060,Cl24Cs12La4,mp-582080,Cs3LaCl6,"['Cs', 'La', 'Cl']",40.0,-162.17210711,0.0001984758144510934,-1.7763568394002505e-15,
7029,Cs6I12La2,mp-1188821,Cs3LaI6,"['Cs', 'La', 'I']",20.0,-64.96638504,0.0,-1.3322676295501878e-15,
13065,B21Cs9Li12O42,mp-1019615,Cs3Li4(BO2)7,"['Cs', 'Li', 'B', 'O']",84.0,-576.55179041,0.006084282228434823,0.0,
13578,Cs6Li2Pb8,mp-1213704,Cs3LiPb4,"['Cs', 'Li', 'Pb']",16.0,-42.92223388,0.00047634166748045104,-4.440892098500626e-16,
11287,Cs3Mn3O16V4,mp-648179,Cs3Mn3V4O16,"['Cs', 'Mn', 'V', 'O']",26.0,-183.08037515,0.000799254296874885,0.0,
28925,Cs3Mn4O36P12,mp-542450,Cs3Mn4(PO3)12,"['Cs', 'Mn', 'P', 'O']",55.0,-395.03499802,2.159139772750507e-05,-5.5067062021407764e-14,
28028,Br10Cs6Mn2,mp-27332,Cs3MnBr5,"['Cs', 'Mn', 'Br']",18.0,-67.18370241,0.0,0.0,
13293,Cl10Cs6Mn2,mp-504451,Cs3MnCl5,"['Cs', 'Mn', 'Cl']",18.0,-73.13988602,0.0,0.0,
29188,Cs6H10Mn2,mp-643706,Cs3MnH5,"['Cs', 'Mn', 'H']",18.0,-58.91408801,0.020221458110568857,0.0,
22888,Cs6I10Mn2,mp-569118,Cs3MnI5,"['Cs', 'Mn', 'I']",18.0,-60.80798375,0.005383698006188986,0.0,
8428,Cs3Mn1O36P12Zn3,mp-1226446,Cs3MnZn3(PO3)12,"['Cs', 'Mn', 'Zn', 'P', 'O']",55.0,-373.03656448,0.0003743425511366638,0.0,
4017,Cs6F6Mo4O12,mp-562523,Cs3Mo2(O2F)3,"['Cs', 'Mo', 'O', 'F']",28.0,-163.92216902,1.8565099050960043e-05,0.0,
25089,Cl18Cs6Mo4,mp-541742,Cs3Mo2Cl9,"['Cs', 'Mo', 'Cl']",28.0,-121.63591391,3.2010728236997466e-06,0.0,
15507,Cs3Mo6O38P10,mp-622048,Cs3Mo6(P5O19)2,"['Cs', 'Mo', 'P', 'O']",57.0,-408.63425875,0.0008638001987391064,-2.6645352591003757e-15,
6966,Cs12Na8P12Sn4,mp-17707,Cs3Na2SnP3,"['Cs', 'Na', 'Sn', 'P']",36.0,-116.0083218,0.0005133406385633421,0.0,
16366,B4Cs6Li4Na2O12,mp-607931,Cs3NaLi2(BO3)2,"['Cs', 'Na', 'Li', 'B', 'O']",28.0,-158.66834064,0.008231486629464158,0.0,
23257,Cs6Na2Pb8,mp-630851,Cs3NaPb4,"['Cs', 'Na', 'Pb']",16.0,-41.60478167,0.0002095970867919128,0.0,
3532,As2Cs6Nb4Se22,mp-683903,Cs3Nb2AsSe11,"['Cs', 'Nb', 'As', 'Se']",34.0,-157.65360374,0.00034359260799643465,0.0,
5588,Cs6I18Nb4,mp-1192748,Cs3Nb2I9,"['Cs', 'Nb', 'I']",28.0,-99.96632265,0.002937724166781841,0.0,
7879,Cs12Nb8S44,mp-669313,Cs3Nb2S11,"['Cs', 'Nb', 'S']",64.0,-328.45739659,0.00022537829345736782,0.0,
3005,Cs12Nb8Se44,mp-1197158,Cs3Nb2Se11,"['Cs', 'Nb', 'Se']",64.0,-295.23539413,0.0007475763073738761,8.881784197001252e-16,
25531,Br34Cs6Nb12S2,mp-1213734,Cs3Nb6SBr17,"['Cs', 'Nb', 'S', 'Br']",54.0,-253.53705048,0.0005077864308447033,0.0,
7715,Cs6Nb18O64Te8,mp-1201443,Cs3Nb9(TeO8)4,"['Cs', 'Nb', 'Te', 'O']",96.0,-736.58076931,0.0003172325292961631,-3.552713678800501e-15,
29564,Cs12Mo12Nd4O48,mp-573369,Cs3Nd(MoO4)3,"['Cs', 'Nd', 'Mo', 'O']",76.0,-509.83997329,0.0006483199403781725,0.0,
14255,Cs12Nd4P8S32,mp-572442,Cs3Nd(PS4)2,"['Cs', 'Nd', 'P', 'S']",56.0,-266.2762073,9.455609654018815e-05,0.0,
14187,Cl48Cs24Nd8,mp-582081,Cs3NdCl6,"['Cs', 'Nd', 'Cl']",80.0,-320.13220744,7.565712206858421e-05,-1.7763568394002505e-15,
24662,Cr12Cs12Nd4O48,mp-572404,Cs3NdCr3O12,"['Cs', 'Nd', 'Cr', 'O']",76.0,-496.67652353,0.0001442858922695578,0.0,
27888,Cs6H16Np2O18,mp-1201856,Cs3NpH8O9,"['Cs', 'Np', 'H', 'O']",42.0,-240.69214778,0.0019448514992665977,0.0,
21370,Cs6O2,mp-510262,Cs3O,"['Cs', 'O']",8.0,-21.31976572,0.0,0.0,
17516,Cs12N44P24,mp-16108,Cs3P6N11,"['Cs', 'P', 'N']",80.0,-554.94085556,2.1031574217289517e-05,0.0,
15485,Cs12P28,mp-541113,Cs3P7,"['Cs', 'P']",40.0,-179.87424281,4.1817933594145984e-05,0.0,
8774,Cs6O42P14Pb4,mp-572271,Cs3P7Pb2O21,"['Cs', 'P', 'Pb', 'O']",66.0,-445.28224567,0.0,0.0,
16339,Cs12O16P4,mp-559808,Cs3PO4,"['Cs', 'P', 'O']",32.0,-179.6443681,0.0001530552856445766,0.0,
26589,Cs12P4Se16,mp-583193,Cs3PSe4,"['Cs', 'P', 'Se']",32.0,-116.98129622,0.0006441588049312941,0.0,
30844,Au2Cs6Pb8,mp-1183951,Cs3Pb4Au,"['Cs', 'Pb', 'Au']",16.0,-45.92271747,0.0007601145611570992,0.0,
22450,Cs6F10Pd2,mp-1213701,Cs3PdF5,"['Cs', 'Pd', 'F']",18.0,-75.27478771,0.006431636926816253,0.0,
27254,Cs12Mo12O48Pr4,mp-1214290,Cs3Pr(MoO4)3,"['Cs', 'Pr', 'Mo', 'O']",76.0,-509.65286556,0.0,0.0,
3518,Cs6P12Pr10S48,mp-1226429,Cs3Pr5(PS4)6,"['Cs', 'Pr', 'P', 'S']",76.0,-400.27000594,0.00031114010383426205,0.0,
23426,Cl24Cs12Pr4,mp-1213891,Cs3PrCl6,"['Cs', 'Pr', 'Cl']",40.0,-159.90684444,1.3941490233371212e-05,-1.7763568394002505e-15,
8978,Cs12H16O28Pu4,mp-1197940,Cs3PuH4O7,"['Cs', 'Pu', 'H', 'O']",60.0,-364.0393789,0.0014945394921879185,0.0,
16711,Cs3Mo12O68P12Rb5,mp-1226988,Cs3Rb5Mo12(P3O17)4,"['Cs', 'Rb', 'Mo', 'P', 'O']",100.0,-693.05419464,0.000465585338286445,0.0,
15460,Cs12N20Re8,mp-1118943,Cs3Re2N5,"['Cs', 'Re', 'N']",40.0,-286.44204188,0.036669384009928585,0.0,
23250,Cs6I8Re6S8,mp-669364,Cs3Re3(SI)4,"['Cs', 'Re', 'S', 'I']",28.0,-153.00638027,0.002175383772320849,0.0,
14537,Cl14Cs6Re12S14,mp-1227999,Cs3Re6(SCl)7,"['Cs', 'Re', 'S', 'Cl']",46.0,-285.32519862,0.00025801127547087077,-6.217248937900877e-15,
27002,Cs12O20Re4,mp-1213725,Cs3ReO5,"['Cs', 'Re', 'O']",36.0,-222.68195353,0.0,0.0,
14696,Cl18Cs6Ru4,mp-541646,Cs3Ru2Cl9,"['Cs', 'Ru', 'Cl']",28.0,-109.74136323,0.00010443952217897845,-1.7763568394002505e-15,
23063,Cs3Sb1,mp-10378,Cs3Sb,"['Cs', 'Sb']",4.0,-8.03410847,0.02964927791625982,0.0,
7123,Br9Cs3Sb2,mp-579560,Cs3Sb2Br9,"['Cs', 'Sb', 'Br']",14.0,-42.50833015,0.00010714862234806333,-1.3322676295501878e-15,
5699,Cl9Cs3Sb2,mp-27629,Cs3Sb2Cl9,"['Cs', 'Sb', 'Cl']",14.0,-47.49251572,-1.7763568394002505e-15,-1.7763568394002505e-15,
5655,Cs6I18Sb4,mp-23029,Cs3Sb2I9,"['Cs', 'Sb', 'I']",28.0,-74.7568052,1.0476318346164248e-06,-1.3322676295501878e-15,
65,Cs12O56Sb20,mp-29970,Cs3Sb5O14,"['Cs', 'Sb', 'O']",88.0,-504.36164728,0.02453554185657758,-5.329070518200751e-15,
19677,Cs6Sb10Se18,mp-1226687,Cs3Sb5Se9,"['Cs', 'Sb', 'Se']",34.0,-129.42260845,0.0008123405101096992,0.0,
16520,Cs12O12Sb4,mp-562072,Cs3SbO3,"['Cs', 'Sb', 'O']",28.0,-128.0391427,4.0305008369934114e-05,0.0,
17108,Cs12O16Sb4,mp-1201472,Cs3SbO4,"['Cs', 'Sb', 'O']",32.0,-156.1127477,0.0008116983093264807,0.0,
20320,Cs12S12Sb4,mp-1193894,Cs3SbS3,"['Cs', 'Sb', 'S']",28.0,-104.09848563,0.000247600965401773,0.0,
29761,Cs12S16Sb4,mp-1204783,Cs3SbS4,"['Cs', 'Sb', 'S']",32.0,-122.54584923,0.0011541828454593173,0.0,
21732,Cs12Sb4Se12,mp-1192816,Cs3SbSe3,"['Cs', 'Sb', 'Se']",28.0,-96.28465551,4.3548854631758616e-05,0.0,
17812,Cs12Sb4Se16,mp-17811,Cs3SbSe4,"['Cs', 'Sb', 'Se']",32.0,-111.67693381,0.0003478974475097374,0.0,
14549,Br18Cs6Sc4,mp-1213834,Cs3Sc2Br9,"['Cs', 'Sc', 'Br']",28.0,-111.36139264,0.00014917643135969882,-1.7763568394002505e-15,
21268,Cl18Cs6Sc4,mp-637194,Cs3Sc2Cl9,"['Cs', 'Sc', 'Cl']",28.0,-123.62078008,0.001020532159595966,0.0,
12569,Cs6I18Sc4,mp-1213817,Cs3Sc2I9,"['Cs', 'Sc', 'I']",28.0,-97.82115888,0.0019005037800012836,-1.7763568394002505e-15,
2885,Cl24Cs12Sc4,mp-1203917,Cs3ScCl6,"['Cs', 'Sc', 'Cl']",40.0,-164.10534604,4.785889646363728e-06,0.0,
1504,Cs6F12Sc2,mp-1214751,Cs3ScF6,"['Cs', 'Sc', 'F']",20.0,-106.24851217,0.00011361879492266524,0.0,
12694,Cs12O12Sc4,mp-768976,Cs3ScO3,"['Cs', 'Sc', 'O']",28.0,-150.79224782,0.005960444242466778,0.0,
24518,Cs12P8S32Sm4,mp-572833,Cs3Sm(PS4)2,"['Cs', 'Sm', 'P', 'S']",56.0,-265.78762963,0.0,0.0,
1368,Cs6Se24Sm14,mp-1226868,Cs3Sm7Se12,"['Cs', 'Sm', 'Se']",44.0,-234.76804215,5.329070518200751e-15,5.329070518200751e-15,
11436,Cs6Sm14Te24,mp-1226825,Cs3Sm7Te12,"['Cs', 'Sm', 'Te']",44.0,-209.38969162,-4.440892098500626e-15,4.440892098500626e-15,
25452,Cs6P2Se14Sn2,mp-1191952,Cs3SnPSe7,"['Cs', 'Sn', 'P', 'Se']",24.0,-90.2151292,0.0022865325602223763,-8.881784197001252e-16,
23004,Cs12Sn4Te12,mp-1193021,Cs3SnTe3,"['Cs', 'Sn', 'Te']",28.0,-88.8001776,0.0010799717529295094,0.0,
6903,Cs12S44Ta8,mp-556091,Cs3Ta2S11,"['Cs', 'Ta', 'S']",64.0,-344.14505086,8.468504882763739e-05,0.0,
19600,Cs12O56Ta20,mp-562434,Cs3Ta5O14,"['Cs', 'Ta', 'O']",88.0,-766.17858461,5.189496804014482e-05,0.0,
20916,Cs12S16Ta4,mp-17054,Cs3TaS4,"['Cs', 'Ta', 'S']",32.0,-166.09060228,0.0,0.0,
30019,C8Cl42Cs6Tb20,mp-571397,Cs3Tb10C4Cl21,"['Cs', 'Tb', 'C', 'Cl']",76.0,-396.34927877,1.8330328947158137e-05,9.769962616701378e-15,
29254,Br18Cs6Tb4,mp-669304,Cs3Tb2Br9,"['Cs', 'Tb', 'Br']",28.0,-106.83775757,0.00016985642159461634,-1.7763568394002505e-15,
3867,Cs6Tb14Te24,mp-1226739,Cs3Tb7Te12,"['Cs', 'Tb', 'Te']",44.0,-207.83447753,0.0017664034042121912,4.440892098500626e-15,
3477,Cl6Cs3Tb1,mp-1112345,Cs3TbCl6,"['Cs', 'Tb', 'Cl']",10.0,-39.56187973,0.028608028052856227,-1.7763568394002505e-15,
73,Cs3F6Tb1,mp-696965,Cs3TbF6,"['Cs', 'Tb', 'F']",10.0,-51.43342788,0.03090946724902288,0.0,
9435,Cl18Cs6Ti4,mp-569484,Cs3Ti2Cl9,"['Cs', 'Ti', 'Cl']",28.0,-121.17743149,0.008048999171315074,-1.7763568394002505e-15,
12640,Cs12Te44Ti12,mp-1203892,Cs3Ti3Te11,"['Cs', 'Ti', 'Te']",68.0,-294.36304716,0.0002775513867181445,0.0,
28990,Cs3F6Ti1,mp-1112963,Cs3TiF6,"['Cs', 'Ti', 'F']",10.0,-51.91972457,0.008099672058837548,-2.6645352591003757e-15,
3904,Cs6F14Ti2,mp-12244,Cs3TiF7,"['Cs', 'Ti', 'F']",22.0,-116.87920697,1.2792423650154205e-05,0.0,
24191,Cl18Cs6Tl4,mp-1192769,Cs3Tl2Cl9,"['Cs', 'Tl', 'Cl']",28.0,-84.40197853,0.0008932184807539656,0.0,
29454,Cs3F6Tl1,mp-1113152,Cs3TlF6,"['Cs', 'Tl', 'F']",10.0,-40.54056203,0.025262733157227046,0.0,
23971,Cs12O12Tl4,mp-756122,Cs3TlO3,"['Cs', 'Tl', 'O']",28.0,-109.37379754,0.0006956484214564185,0.0,
387,Cs3Te18Tm11,mp-1201357,Cs3Tm11Te18,"['Cs', 'Tm', 'Te']",32.0,-152.23365189,0.015551058643798576,8.881784197001252e-15,
6122,Cs6I18Tm4,mp-669308,Cs3Tm2I9,"['Cs', 'Tm', 'I']",28.0,-92.53415267,0.0006736638853217514,-1.7763568394002505e-15,
19350,Cs12O12Tm4,mp-756459,Cs3TmO3,"['Cs', 'Tm', 'O']",28.0,-142.42700274,0.02362922080028973,0.0,
783,Cs12Ge8O44U8,mp-557858,Cs3U2Ge2O11,"['Cs', 'U', 'Ge', 'O']",72.0,-530.5531189,3.552713678800501e-15,0.0,
16757,Cs6O20P2U4,mp-1201643,Cs3U2PO10,"['Cs', 'U', 'P', 'O']",32.0,-247.00060738,0.0001495145532235398,0.0,
11432,Cs3F6U1,mp-1205746,Cs3UF6,"['Cs', 'U', 'F']",10.0,-54.75714719,0.07735085068688896,0.0,
16124,Cl18Cs6V4,mp-541084,Cs3V2Cl9,"['Cs', 'V', 'Cl']",28.0,-120.50876855,0.0006116988630058273,4.440892098500626e-15,
23018,Cs6F14O4V4,mp-1226167,Cs3V2O2F7,"['Cs', 'V', 'O', 'F']",28.0,-156.22822907,0.008325483413961443,0.0,
72,Cs12S16V4,mp-1200171,Cs3VS4,"['Cs', 'V', 'S']",32.0,-151.60986286,0.00013079624511735943,-1.7763568394002505e-15,
18600,Cs3Se4V1,mp-1120763,Cs3VSe4,"['Cs', 'V', 'Se']",8.0,-34.06963978,0.005713849470621923,0.0,
5511,Cs12O32P8Y4,mp-1019614,Cs3Y(PO4)2,"['Cs', 'Y', 'P', 'O']",56.0,-381.75832251,2.4836944755968204e-05,0.0,
18641,Cs6H36N18Y4,mp-1196700,Cs3Y2(H2N)9,"['Cs', 'Y', 'H', 'N']",64.0,-336.35212843,0.0010452230480959557,0.0,
8079,Br18Cs6Y4,mp-568937,Cs3Y2Br9,"['Cs', 'Y', 'Br']",28.0,-114.1829887,0.00014665906459132572,-1.7763568394002505e-15,
26126,Cl18Cs6Y4,mp-1192829,Cs3Y2Cl9,"['Cs', 'Y', 'Cl']",28.0,-126.36163486,0.0001280789048720976,0.0,
3435,Cs6Se24Y14,mp-1226222,Cs3Y7Se12,"['Cs', 'Y', 'Se']",44.0,-260.13668029,3.700690341457147e-05,5.329070518200751e-15,
12188,Cs3F6Y1,mp-1113151,Cs3YF6,"['Cs', 'Y', 'F']",10.0,-53.2111171,0.02977781331542939,0.0,
4145,Cs12O12Y4,mp-770815,Cs3YO3,"['Cs', 'Y', 'O']",28.0,-149.1863893,0.022066210884020165,0.0,
13907,Cl10Cs6Zn2,mp-570262,Cs3ZnCl5,"['Cs', 'Zn', 'Cl']",18.0,-57.9009977,0.00023750706380232245,0.0,
3893,Cs12I20Zn4,mp-1200647,Cs3ZnI5,"['Cs', 'Zn', 'I']",36.0,-91.84400043,0.0031510972216821642,0.0,
25542,Cs6I18Zr4,mp-540822,Cs3Zr2I9,"['Cs', 'Zr', 'I']",28.0,-101.20544848,0.00011070056082918,3.552713678800501e-15,
445,Cs6P10S36Zr4,mp-1204981,Cs3Zr2P5S18,"['Cs', 'Zr', 'P', 'S']",56.0,-287.46659758,0.0003011357435829254,0.0,
8747,B2Cl40Cs6Zr14,mp-567781,Cs3Zr7BCl20,"['Cs', 'Zr', 'B', 'Cl']",62.0,-326.85267956,6.36518800423147e-05,8.881784197001252e-16,
7729,Cl40Cs6Mn2Zr14,mp-1201250,Cs3Zr7MnCl20,"['Cs', 'Zr', 'Mn', 'Cl']",62.0,-326.63504532,0.0001234263533262947,0.0,
14664,B18Cs8S18,mp-1200467,Cs4(BS)9,"['Cs', 'B', 'S']",44.0,-236.25407892,0.0,0.0,
11068,Au6Cs4S5,mp-1104686,Cs4Au6S5,"['Cs', 'Au', 'S']",15.0,-54.07392975,6.093333333323514e-05,0.0,
4463,Ba2Cs8O36P12,mp-560944,Cs4Ba(PO3)6,"['Cs', 'Ba', 'P', 'O']",58.0,-390.73292453,9.656709333505376e-06,0.0,
30682,Ba2Cs8O36V12,mp-1198646,Cs4BaV6O18,"['Cs', 'Ba', 'V', 'O']",58.0,-399.10625601,0.0003608582933729565,0.0,
20158,As24Bi8Cs32Se56,mp-1204289,Cs4BiAs3Se7,"['Cs', 'Bi', 'As', 'Se']",120.0,-451.69079687,0.0,-7.105427357601002e-15,
5326,Bi2Cl24Cs8Sb2,mp-23583,Cs4BiSbCl12,"['Cs', 'Bi', 'Sb', 'Cl']",36.0,-117.99509303,8.904655707420162e-05,0.0,
26523,Cd1Cs4F12Ni3,mp-561567,Cs4CdNi3F12,"['Cs', 'Cd', 'Ni', 'F']",20.0,-84.36567685,0.00011023708984758684,0.0,
29758,Co6Cs8F20,mp-1196471,Cs4Co3F10,"['Cs', 'Co', 'F']",34.0,-159.11551305,0.008743415722638481,-4.440892098500626e-15,
7627,Cl24Cs8Cu2Sb4,mp-2646918,Cs4Cu(SbCl6)2,"['Cs', 'Cu', 'Sb', 'Cl']",38.0,-127.37447018,0.002656883936577703,-6.661338147750939e-15,
11944,Cs4Cu3F10,mp-505031,Cs4Cu3F10,"['Cs', 'Cu', 'F']",17.0,-71.19040203,0.00021406515857869124,3.197442310920451e-14,
24896,Cs4Cu1O7Si2,mp-561495,Cs4CuSi2O7,"['Cs', 'Cu', 'Si', 'O']",14.0,-81.69579199,5.1173775111656994e-05,0.0,
8224,Cs8Fe2Mo6O24,mp-1226269,Cs4Fe(MoO4)3,"['Cs', 'Fe', 'Mo', 'O']",40.0,-252.4200478,0.0008324109570310156,0.0,
25034,Cs8Fe4O10,mp-1191216,Cs4Fe2O5,"['Cs', 'Fe', 'O']",22.0,-110.32263236,0.0002644498339838819,0.0,
15589,Cs8F20Fe6,mp-616023,Cs4Fe3F10,"['Cs', 'Fe', 'F']",34.0,-167.99643414,-5.329070518200751e-15,-5.329070518200751e-15,
13953,Cs16Fe4O12,mp-1205381,Cs4FeO3,"['Cs', 'Fe', 'O']",32.0,-134.38650734,0.0,0.0,
28500,Cs16Fe4O16,mp-1201003,Cs4FeO4,"['Cs', 'Fe', 'O']",36.0,-161.49225648,0.0006899953743495502,0.0,
20403,Cs8Ge2P8S24,mp-1195705,Cs4Ge(PS3)4,"['Cs', 'Ge', 'P', 'S']",42.0,-187.95058241,0.0,0.0,
478,Cs16Ge4P16Se48,mp-1195417,Cs4Ge(PSe3)4,"['Cs', 'Ge', 'P', 'Se']",84.0,-334.27126384,0.0,0.0,
31635,Cs16Ge4O16,mp-779716,Cs4GeO4,"['Cs', 'Ge', 'O']",36.0,-168.03158183,0.0,0.0,
395,Cs16Ge4Te24,mp-1200610,Cs4GeTe6,"['Cs', 'Ge', 'Te']",44.0,-139.32786422,0.0,0.0,
16119,Cs8Hf6Se28,mp-1200567,Cs4Hf3Se14,"['Cs', 'Hf', 'Se']",42.0,-208.54918532,0.00030292869512571485,0.0,
30133,Cs16Hf4O16,mp-771139,Cs4HfO4,"['Cs', 'Hf', 'O']",36.0,-206.53370674,0.0007100775347224086,0.0,
19201,Cs8In4S10,mp-1190726,Cs4In2S5,"['Cs', 'In', 'S']",22.0,-81.88362449,0.002792385859375912,0.0,
3411,Cl12Cs4In1Sb1,mp-1225983,Cs4InSbCl12,"['Cs', 'In', 'Sb', 'Cl']",18.0,-58.3604974,0.00017903170572619587,0.0,
23033,Cs4Ir1O4,mp-561672,Cs4IrO4,"['Cs', 'Ir', 'O']",9.0,-42.52305738,0.0014160724967453575,0.0,
26734,Cs8Cu2K4O16Si4,mp-628617,Cs4K2Cu(SiO4)2,"['Cs', 'K', 'Cu', 'Si', 'O']",34.0,-187.02470459,0.00019039737017489955,0.0,
20063,Cs8F2K6O40Si8U6,mp-1200353,Cs4K3U3Si4O20F,"['Cs', 'K', 'U', 'Si', 'O', 'F']",70.0,-520.24583305,0.00015968131696464383,0.0,
29943,Cs4F12Fe2K1Li1,mp-561000,Cs4KLiFe2F12,"['Cs', 'K', 'Li', 'Fe', 'F']",20.0,-95.52580033,0.0014824932656249956,0.0,
573,Cs4F12Ga2K1Li1,mp-15079,Cs4KLiGa2F12,"['Cs', 'K', 'Li', 'Ga', 'F']",20.0,-91.78613137,0.0015480121884765552,0.0,
5830,Cs8La2N16O48,mp-728544,Cs4La(NO3)8,"['Cs', 'La', 'N', 'O']",74.0,-456.30742169,0.007480863854518738,0.0,
4760,Cs16Li8O60Si24,mp-562394,Cs4Li2(Si2O5)3,"['Cs', 'Li', 'Si', 'O']",108.0,-733.87032842,0.005361519801794223,0.0,
15055,Cs8Mg2O48P12Zr6,mp-690929,Cs4MgZr3(PO4)6,"['Cs', 'Mg', 'Zr', 'P', 'O']",76.0,-564.36169885,0.004972820355670926,0.0,
21704,Cl24Cs8Mn2Sb4,mp-2646913,Cs4Mn(SbCl6)2,"['Cs', 'Mn', 'Sb', 'Cl']",38.0,-141.12836223,0.0010879112430624005,0.0,
14481,Cs16Mn12O24,mp-1226457,Cs4Mn3O6,"['Cs', 'Mn', 'O']",52.0,-299.00513256,0.0,0.0,
22470,Cs8F38H4Hf6Na2,mp-562542,Cs4NaHf3H2F19,"['Cs', 'Na', 'Hf', 'H', 'F']",58.0,-343.25374308,0.0002485281869608613,-1.0658141036401503e-14,
9858,Cs16Nb8S44,mp-1200810,Cs4Nb2S11,"['Cs', 'Nb', 'S']",68.0,-340.17000641,0.005685120977395819,-4.440892098500626e-15,
27486,Cs4Nb2O23Si8,mp-555696,Cs4Nb2Si8O23,"['Cs', 'Nb', 'Si', 'O']",37.0,-279.82136409,8.526240077522118e-05,0.0,
15750,Cs8F20Ni6,mp-17733,Cs4Ni3F10,"['Cs', 'Ni', 'F']",34.0,-145.65183656,2.8607179440420794e-05,-1.7763568394002505e-14,
19809,Cl40Cs16O4Os8,mp-1202549,Cs4Os2Cl10O,"['Cs', 'Os', 'Cl', 'O']",68.0,-284.72095928,0.0005053631560203442,0.0,
15816,Cs8P4Pd2Se16,mp-866688,Cs4P2PdSe8,"['Cs', 'P', 'Pd', 'Se']",30.0,-117.37786769,0.0016920425761641766,0.0,
23701,Cs8P4Se18,mp-569193,Cs4P2Se9,"['Cs', 'P', 'Se']",30.0,-112.39367943,0.00038450565364556155,0.0,