,Composition,MaterialId,Reduced Formula,Elements,NSites,Corrected Energy,Decomposition Energy Per Atom All,Decomposition Energy Per Atom MP,Directory
16154,Ca2In4O8,mp-22766,CaIn2O4,"['Ca', 'In', 'O']",14.0,-82.63276909,7.900665038906851e-05,-2.6645352591003757e-15,
10494,Ca2In4Pd2,mp-22717,CaIn2Pd,"['Ca', 'In', 'Pd']",8.0,-30.28757015,0.0015560200683593095,0.0,
4795,Ca2In4Pt2,mp-21027,CaIn2Pt,"['Ca', 'In', 'Pt']",8.0,-32.67020207,0.002404951363525143,0.0,
30924,Ca8In16Rh8,mp-1214064,CaIn2Rh,"['Ca', 'In', 'Rh']",32.0,-135.59310751,0.015297940361327811,0.0,
9128,Ca2In8Ir2,mp-20838,CaIn4Ir,"['Ca', 'In', 'Ir']",12.0,-47.68856015,0.0,0.0,
8380,Ca2In8Rh2,mp-21220,CaIn4Rh,"['Ca', 'In', 'Rh']",12.0,-45.47454498,0.00014968896321665426,0.0,
14324,Ag2Ca1In1,mp-1183617,CaInAg2,"['Ca', 'In', 'Ag']",4.0,-11.62081633,0.007259930202306197,0.0,
18240,Au4Ca4In4,mp-20378,CaInAu,"['Ca', 'In', 'Au']",12.0,-40.13824881,0.0006818466031899284,0.0,
22897,Br6Ca2In2,mp-28534,CaInBr3,"['Ca', 'In', 'Br']",10.0,-34.39340196,0.0027418749228500516,0.0,
9281,Ca1Cu4In1,mp-570769,CaInCu4,"['Ca', 'In', 'Cu']",6.0,-22.16200508,0.0009507117643230423,0.0,
14619,Ca1Hg2In1,mp-867201,CaInHg2,"['Ca', 'In', 'Hg']",4.0,-6.92030025,0.0005368975931803188,0.0,
27464,Ca4In4Pd4,mp-620571,CaInPd,"['Ca', 'In', 'Pd']",12.0,-48.12598857,0.006822539108886971,0.0,
822,Ca1In1Pd2,mp-1183586,CaInPd2,"['Ca', 'In', 'Pd']",4.0,-17.74747312,0.02342119830200229,1.7763568394002505e-15,
20930,Ca4In4Pt4,mp-570689,CaInPt,"['Ca', 'In', 'Pt']",12.0,-53.17190752,0.0005052805192056198,0.0,
4642,Ca4In4Rh4,mp-20220,CaInRh,"['Ca', 'In', 'Rh']",12.0,-54.98066881,0.00031775012695334226,0.0,
483,Ca2Ir4,mp-570436,CaIr2,"['Ca', 'Ir']",6.0,-42.20350294,0.020499499827473677,0.0,
25403,Ca2Ir2O6,mp-4243,CaIrO3,"['Ca', 'Ir', 'O']",10.0,-68.27332932,0.011082874579586566,0.0,
4885,B10Ca1La2O19,mp-560622,CaLa2B10O19,"['Ca', 'La', 'B', 'O']",32.0,-260.34535083,-6.039613253960852e-14,-6.039613253960852e-14,
16004,Ca2La8O26Si6,mp-1227220,CaLa4Si3O13,"['Ca', 'La', 'Si', 'O']",42.0,-343.33102526,0.003729646432297784,0.0,
30070,Ag2Ca1La1,mp-862795,CaLaAg2,"['Ca', 'La', 'Ag']",4.0,-13.90414314,0.0,0.0,
12734,Al6Ca2La2O14,mp-1227186,CaLaAl3O7,"['Ca', 'La', 'Al', 'O']",24.0,-181.80091929,0.0006317808854170437,0.0,
447,Au2Ca1La1,mp-1183579,CaLaAu2,"['Ca', 'La', 'Au']",4.0,-16.79316521,0.0,0.0,
6375,Ca1Cd2La1,mp-866000,CaLaCd2,"['Ca', 'La', 'Cd']",4.0,-10.30607113,0.00011137933471694339,0.0,
24361,Ca2Fe2La2Ni2O12,mp-1043874,CaLaFeNiO6,"['Ca', 'La', 'Fe', 'Ni', 'O']",20.0,-130.9737848,0.00876440182031235,0.0,
18232,Ca2Fe2La2O12Sb2,mp-1639336,CaLaFeSbO6,"['Ca', 'La', 'Fe', 'Sb', 'O']",20.0,-140.07937489,0.00819172241992927,0.0,
30102,Ca4Ga4La4O16,mp-559969,CaLaGaO4,"['Ca', 'La', 'Ga', 'O']",28.0,-198.32615156,0.0009970634263334333,-6.217248937900877e-15,
30218,Ca1Hg2La1,mp-862846,CaLaHg2,"['Ca', 'La', 'Hg']",4.0,-9.83586161,0.0,0.0,
19828,Ca2La2Mg2O12Ta2,mp-684801,CaLaMgTaO6,"['Ca', 'La', 'Mg', 'Ta', 'O']",20.0,-162.71549801,0.0,0.0,
31172,Ca4La4Mn4Nb4O24,mp-1227173,CaLaMnNbO6,"['Ca', 'La', 'Mn', 'Nb', 'O']",40.0,-328.70325501,0.0,0.0,
15602,Ca4Fe4La4O24Ta4,mp-1043970,CaLaTaFeO6,"['Ca', 'La', 'Ta', 'Fe', 'O']",40.0,-331.25993867,7.105427357601002e-15,0.0,
24180,Ca4Cr4La4O24Ti4,mp-39159,CaLaTiCrO6,"['Ca', 'La', 'Ti', 'Cr', 'O']",40.0,-327.29666893,0.005279299171881746,0.0,
16168,Ca1La1Zn2,mp-862962,CaLaZn2,"['Ca', 'La', 'Zn']",4.0,-10.72390693,0.0,0.0,
17866,C2Ca1Mg1O6,mp-6459,CaMg(CO3)2,"['Ca', 'Mg', 'C', 'O']",10.0,-73.35162902,0.0,0.0,
24186,Ca2Mg2O12Si4,mp-6766,CaMg(SiO3)2,"['Ca', 'Mg', 'Si', 'O']",20.0,-146.98223753,0.0,0.0,
14295,Ca2Mg4O24S6,mp-554094,CaMg2(SO4)3,"['Ca', 'Mg', 'S', 'O']",36.0,-227.45460254,0.0,0.0,
5181,Ca8Mg24N32Si8,mp-1019579,CaMg3SiN4,"['Ca', 'Mg', 'Si', 'N']",72.0,-437.00605221,0.0,0.0,
4027,Ca1Cd2Mg1,mp-1183548,CaMgCd2,"['Ca', 'Mg', 'Cd']",4.0,-6.49235687,0.0,0.0,
19754,Ca1Hg2Mg1,mp-867144,CaMgHg2,"['Ca', 'Mg', 'Hg']",4.0,-5.89361885,0.0,0.0,
21206,Ca4Mg4Pb4,mp-861738,CaMgPb,"['Ca', 'Mg', 'Pb']",12.0,-34.47793013,0.0,0.0,
729,Ca4Mg4Pd4,mp-1102662,CaMgPd,"['Ca', 'Mg', 'Pd']",12.0,-42.59111933,0.0,0.0,
4993,Ca4Mg4O16Si4,mp-6493,CaMgSiO4,"['Ca', 'Mg', 'Si', 'O']",28.0,-198.52682181,0.0,0.0,
2138,Ca2Ge4Mn2O12,mp-1043484,CaMn(GeO3)2,"['Ca', 'Mn', 'Ge', 'O']",20.0,-137.58062931,0.0,0.0,
28361,Ca2Mn2O24P8,mp-1045779,CaMn(PO3)4,"['Ca', 'Mn', 'P', 'O']",36.0,-265.05842419,0.0013315193532843494,-1.4210854715202004e-14,
5456,Be12Ca4Mn8O48Si12,mp-15539,CaMn2Be3(SiO4)3,"['Ca', 'Mn', 'Be', 'Si', 'O']",84.0,-638.10352457,1.3786276069183145e-05,2.842170943040401e-14,
25519,Ca4Mn8O16,mp-18844,CaMn2O4,"['Ca', 'Mn', 'O']",28.0,-204.69113809,0.0,0.0,
869,Ca4Mn8O36P8,mp-1364623,CaMn2P2O9,"['Ca', 'Mn', 'P', 'O']",56.0,-414.34464316,0.006402350797991119,-5.684341886080802e-14,
1168,Ca2Mn6O26P6,mp-1047886,CaMn3P3O13,"['Ca', 'Mn', 'P', 'O']",40.0,-296.45775469,0.0026249956650676864,0.0,
12176,Ca2Mn8O30Si10,mp-558800,CaMn4(SiO3)5,"['Ca', 'Mn', 'Si', 'O']",50.0,-392.40320398,0.0,3.019806626980426e-14,
1711,Ca4Mn24O48Si4,mp-558986,CaMn6SiO12,"['Ca', 'Mn', 'Si', 'O']",80.0,-604.92903256,0.0,0.0,
15637,Ca2F10Mn2,mp-557426,CaMnF5,"['Ca', 'Mn', 'F']",14.0,-81.2593576,9.463100586515338e-05,5.329070518200751e-15,
23432,Ca1F6Mn1,mp-1387972,CaMnF6,"['Ca', 'Mn', 'F']",8.0,-43.79840004,0.0,0.0,
25923,Ca4Ge4Mn4O16,mp-1214074,CaMnGeO4,"['Ca', 'Mn', 'Ge', 'O']",28.0,-196.5887925,0.0,0.0,
17294,Ca2Mn2O14P4,mp-18743,CaMnP2O7,"['Ca', 'Mn', 'P', 'O']",22.0,-164.14517005,0.0014057447975570625,-2.842170943040401e-14,
25947,Ca4Mn4O16Si4,mp-1213991,CaMnSiO4,"['Ca', 'Mn', 'Si', 'O']",28.0,-213.40418879,0.0010049980482769172,7.105427357601002e-15,
14460,Ca4Mo8O36P8,mp-1040876,CaMo2P2O9,"['Ca', 'Mo', 'P', 'O']",56.0,-414.16023041,-7.105427357601002e-15,0.0,
14624,Ca1F6Mo1,mp-1401355,CaMoF6,"['Ca', 'Mo', 'F']",8.0,-45.0911248,9.247037353432574e-05,0.0,
3292,Ca2Mo2N6,mp-989635,CaMoN3,"['Ca', 'Mo', 'N']",10.0,-81.48883229,0.047462518375485985,7.105427357601002e-15,
13183,Ca4Mo4O12,mp-607467,CaMoO3,"['Ca', 'Mo', 'O']",20.0,-142.11608675,0.0003809103027290206,0.0,
29402,Ca2Mo2O8,mp-19330,CaMoO4,"['Ca', 'Mo', 'O']",12.0,-85.06171523,7.124670247193876e-05,0.0,
20055,Ca1N2,mp-1009657,CaN2,"['Ca', 'N']",3.0,-20.18410865,0.008814562548828064,0.0,
17447,Ca2Nb4O42P12,mp-555424,CaNb2(P2O7)3,"['Ca', 'Nb', 'P', 'O']",60.0,-460.09840081,1.3087085939389453e-05,0.0,
20033,Ca4Nb8O16,mp-29792,CaNb2O4,"['Ca', 'Nb', 'O']",28.0,-241.68267516,-3.552713678800501e-15,-3.552713678800501e-15,
8705,Ca4Nb8O24,mp-17101,CaNb2O6,"['Ca', 'Nb', 'O']",36.0,-307.64716647,0.0,3.552713678800501e-15,
12559,Ca2Nb4O22P4,mp-557786,CaNb2P2O11,"['Ca', 'Nb', 'P', 'O']",32.0,-257.64904029,6.385590820556786e-06,0.0,
5818,Ca3Nb12O24,mp-1227240,CaNb4O8,"['Ca', 'Nb', 'O']",39.0,-345.20887148,-1.5987211554602254e-14,-1.5987211554602254e-14,
19591,Ca2Nb10O72P18,mp-2713921,CaNb5(PO4)9,"['Ca', 'Nb', 'P', 'O']",102.0,-804.40473893,0.002191031285173395,-5.861977570020827e-14,
23816,Ca4Mn12Nd8O36,mp-1227543,CaNd2Mn3O9,"['Ca', 'Nd', 'Mn', 'O']",60.0,-459.01923338,0.00017460968232185792,1.4210854715202004e-14,
8898,Ag2Ca1Nd1,mp-1183555,CaNdAg2,"['Ca', 'Nd', 'Ag']",4.0,-13.69510718,0.0,0.0,
20406,Al6Ca2Nd2O14,mp-1227115,CaNdAl3O7,"['Ca', 'Nd', 'Al', 'O']",24.0,-180.82459375,0.004339965820313374,0.0,
10811,Ca1Cd2Nd1,mp-867224,CaNdCd2,"['Ca', 'Nd', 'Cd']",4.0,-10.07414477,0.0,0.0,
25161,Ca1Hg2Nd1,mp-865955,CaNdHg2,"['Ca', 'Nd', 'Hg']",4.0,-9.5723731,0.0,0.0,
17230,Ca1Nd1Zn2,mp-866220,CaNdZn2,"['Ca', 'Nd', 'Zn']",4.0,-10.52494528,0.0,0.0,
6939,Ca2Ni2O24P8,mp-1045813,CaNi(PO3)4,"['Ca', 'Ni', 'P', 'O']",36.0,-252.66505897,0.001246632615016452,0.0,
1090,Ca2Ni4,mp-2295,CaNi2,"['Ca', 'Ni']",6.0,-28.26663033,0.0,0.0,
25979,Ca2Ni6O28P8,mp-19473,CaNi3(P2O7)2,"['Ca', 'Ni', 'P', 'O']",44.0,-295.34225426,0.00047915122869390814,0.0,
5096,B2Ca2Ni8,mp-8307,CaNi4B,"['Ca', 'Ni', 'B']",12.0,-67.2548445,9.856013997300295e-05,0.0,
18539,As4Ca4H4Ni4O20,mp-505457,CaNiAsHO5,"['Ca', 'Ni', 'As', 'H', 'O']",36.0,-212.62986471,6.80891102433634e-05,0.0,
12380,B2Ca2N2Ni2,mp-1079500,CaNiBN,"['Ca', 'Ni', 'B', 'N']",8.0,-52.60827341,0.00020017967651320134,0.0,
29699,Ca4F20Ni4,mp-1376405,CaNiF5,"['Ca', 'Ni', 'F']",28.0,-131.05823188,0.0038207852566971567,-9.769962616701378e-15,
17643,Ca1F6Ni1,mp-1323553,CaNiF6,"['Ca', 'Ni', 'F']",8.0,-34.58270685,0.004117881542968327,0.0,
11493,Ca2Ge2Ni2,mp-1077470,CaNiGe,"['Ca', 'Ni', 'Ge']",6.0,-28.10751273,0.0,0.0,
23529,Ca2Ge4Ni2,mp-13512,CaNiGe2,"['Ca', 'Ni', 'Ge']",8.0,-38.37640207,0.0,0.0,
1358,Ca1H3Ni1,mp-1207078,CaNiH3,"['Ca', 'Ni', 'H']",5.0,-20.23990845,0.0,0.0,
16591,Ca2N2Ni2,mp-28645,CaNiN,"['Ca', 'Ni', 'N']",6.0,-36.29176298,0.0005392185026034113,0.0,
30046,Ca2H18Np2O18,mp-1195052,CaNp(HO)9,"['Ca', 'Np', 'H', 'O']",40.0,-243.80505481,0.0027923782241208173,0.0,
3985,Ca4H28Np4O32,mp-1195107,CaNpH7O8,"['Ca', 'Np', 'H', 'O']",68.0,-427.04246242,0.017903857251982735,0.0,
14123,Ca1O1,mp-2605,CaO,"['Ca', 'O']",2.0,-12.87859967,4.852315429726417e-05,0.0,
15994,Ca1O2,mp-634859,CaO2,"['Ca', 'O']",3.0,-17.59120235,0.09784181106770884,0.0,
8400,Ca6P6,mp-1345,CaP,"['Ca', 'P']",12.0,-57.59914743,0.0,0.0,
28435,Ca2H8O8P4,mp-24130,CaP2(HO)4,"['Ca', 'P', 'H', 'O']",22.0,-125.41739961,0.027425260397335727,5.329070518200751e-15,
19067,Ca2H4O14P4,mp-643898,CaP2H2O7,"['Ca', 'P', 'H', 'O']",24.0,-160.87475705,0.0001568310872404055,-2.4868995751603507e-14,
2820,Ca8H40N8O56P16,mp-1214543,CaP2H5NO7,"['Ca', 'P', 'H', 'N', 'O']",128.0,-808.56068951,0.0007283320751954037,0.0,
17275,Ca4O28P8Pd4,mp-1214043,CaP2PdO7,"['Ca', 'P', 'Pd', 'O']",44.0,-305.03767856,0.00453955976029885,0.0,
28426,Ca2P6,mp-9122,CaP3,"['Ca', 'P']",8.0,-41.48603056,0.0,0.0,
2670,Ca2H4O24P8,mp-697657,CaP4(HO6)2,"['Ca', 'P', 'H', 'O']",38.0,-260.9200769,0.0029643298828121445,-1.3322676295501878e-14,
8303,Ca4O44P16,mp-30983,CaP4O11,"['Ca', 'P', 'O']",64.0,-460.48366123,0.00017036667602532418,0.0,
1416,Ca2H8N24P12,mp-1195714,CaP6(HN3)4,"['Ca', 'P', 'H', 'N']",46.0,-321.54459961,0.0008243779585610511,0.0,
24061,Au2Ca2P2,mp-10677,CaPAu,"['Ca', 'P', 'Au']",6.0,-26.66882715,0.0,0.0,
17851,Ca4H4O16P4,mp-24390,CaPHO4,"['Ca', 'P', 'H', 'O']",28.0,-189.83716373,-1.2434497875801753e-14,-1.2434497875801753e-14,
16577,Ca4P4Pt4,mp-28339,CaPPt,"['Ca', 'P', 'Pt']",12.0,-67.59509908,0.00019974605956996072,0.0,
21331,Ca4P4S12,mp-9789,CaPS3,"['Ca', 'P', 'S']",20.0,-100.42995543,0.0,0.0,
22716,Ca4P4Se12,mp-11007,CaPSe3,"['Ca', 'P', 'Se']",20.0,-89.34508264,2.4993976563081333e-05,0.0,
23286,Ca1Pb1,mp-20034,CaPb,"['Ca', 'Pb']",2.0,-6.76001141,0.0,0.0,
2490,Ca1Pb3,mp-20549,CaPb3,"['Ca', 'Pb']",4.0,-14.30487352,0.007392472559406116,0.0,
3616,Ca1F6Pb1,mp-20463,CaPbF6,"['Ca', 'Pb', 'F']",8.0,-38.67422125,0.00018872100830069627,0.0,
27247,Ca4I24Pb4,mp-771691,CaPbI6,"['Ca', 'Pb', 'I']",32.0,-84.621969,0.06416304173008447,0.0,
3490,Ca1Pd1,mp-213,CaPd,"['Ca', 'Pd']",2.0,-8.53568745,0.00022792645874059048,0.0,
6263,Ca2Pd4,mp-833,CaPd2,"['Ca', 'Pd']",6.0,-28.89554143,0.005027254342447662,0.0,
26477,Ca2O8Pd6,mp-3315,CaPd3O4,"['Ca', 'Pd', 'O']",16.0,-93.40779264,0.0,0.0,
25433,Ca1Pd5,mp-11826,CaPd5,"['Ca', 'Pd']",6.0,-30.10797383,0.010669559886814284,0.0,
24200,Ca2F8Pd2,mp-8161,CaPdF4,"['Ca', 'Pd', 'F']",12.0,-60.00349761,0.0,0.0,
17431,Ca1F6Pd1,mp-7922,CaPdF6,"['Ca', 'Pd', 'F']",8.0,-36.82289212,0.0,0.0,
7419,Ca3Pb3Pd3,mp-672254,CaPdPb,"['Ca', 'Pd', 'Pb']",9.0,-38.29729104,0.001457611766492839,0.0,
12105,Ag2Ca1Pm1,mp-1183552,CaPmAg2,"['Ca', 'Pm', 'Ag']",4.0,-13.67648271,0.0,0.0,
23518,Au2Ca1Pm1,mp-862882,CaPmAu2,"['Ca', 'Pm', 'Au']",4.0,-16.56128542,0.0,0.0,
10080,Ca1Cd2Pm1,mp-862881,CaPmCd2,"['Ca', 'Pm', 'Cd']",4.0,-10.04692433,0.0,0.0,
17284,Ca1Hg2Pm1,mp-862883,CaPmHg2,"['Ca', 'Pm', 'Hg']",4.0,-9.54909632,0.0,0.0,
22755,Ca1Pd2Pm1,mp-862884,CaPmPd2,"['Ca', 'Pm', 'Pd']",4.0,-20.1000767,0.0,0.0,
20794,Ca1Pm1Pt2,mp-862886,CaPmPt2,"['Ca', 'Pm', 'Pt']",4.0,-22.95060849,0.0,0.0,
8724,Ca1Pm1Zn2,mp-862888,CaPmZn2,"['Ca', 'Pm', 'Zn']",4.0,-10.50857636,0.0,0.0,
12624,Ca2Fe4O12Pr2,mp-1044754,CaPr(FeO3)2,"['Ca', 'Pr', 'Fe', 'O']",20.0,-139.72870986,0.0001957875175779833,0.0,
25492,Ca2Mo4O12Pr2,mp-1044742,CaPr(MoO3)2,"['Ca', 'Pr', 'Mo', 'O']",20.0,-149.93498444,0.0019760135991280237,0.0,
25673,Ca1Fe4O12Pr3,mp-1227161,CaPr3(FeO3)4,"['Ca', 'Pr', 'Fe', 'O']",20.0,-145.07438297,0.0002567975449228044,0.0,
14895,Ag2Ca1Pr1,mp-866060,CaPrAg2,"['Ca', 'Pr', 'Ag']",4.0,-13.71210889,0.0,0.0,
7217,Al6Ca2O14Pr2,mp-1227113,CaPrAl3O7,"['Ca', 'Pr', 'Al', 'O']",24.0,-180.76152496,0.004221250039062596,0.0,
12163,Ca1Cd2Pr1,mp-867257,CaPrCd2,"['Ca', 'Pr', 'Cd']",4.0,-10.12153185,7.501098022455466e-05,0.0,
9224,Ca1Hg2Pr1,mp-867217,CaPrHg2,"['Ca', 'Pr', 'Hg']",4.0,-9.59292969,0.0,0.0,
13498,Ca2Mn4O12Pr2,mp-40630,CaPrMn2O6,"['Ca', 'Pr', 'Mn', 'O']",20.0,-149.53782582,0.001861357207713965,0.0,
15798,Ca2O12Pr2Ti4,mp-1044426,CaPrTi2O6,"['Ca', 'Pr', 'Ti', 'O']",20.0,-168.01728816,0.0009828332109389493,0.0,
5781,Ca1Pr1Zn2,mp-866015,CaPrZn2,"['Ca', 'Pr', 'Zn']",4.0,-10.53596977,0.0,0.0,
26123,Ca2Pt4,mp-842,CaPt2,"['Ca', 'Pt']",6.0,-33.88731184,0.0016330242252600158,0.0,
11910,Ca1Pt5,mp-30481,CaPt5,"['Ca', 'Pt']",6.0,-35.44116347,0.0,0.0,
4176,Ca1F6Pt1,mp-8255,CaPtF6,"['Ca', 'Pt', 'F']",8.0,-38.21540496,-4.440892098500626e-15,-4.440892098500626e-15,
26625,Ca4Pb4Pt4,mp-1103307,CaPtPb,"['Ca', 'Pt', 'Pb']",12.0,-55.3937592,0.012756259157990613,0.0,
26985,Ca2Cl2H8O12Re2,mp-866312,CaReH4ClO6,"['Ca', 'Re', 'H', 'Cl', 'O']",26.0,-161.07738434,0.0051719506447209795,0.0,
2957,Ca4N12Re4,mp-989606,CaReN3,"['Ca', 'Re', 'N']",20.0,-168.244454,0.0,0.0,
27817,Ca2Rh4,mp-571262,CaRh2,"['Ca', 'Rh']",6.0,-35.93479448,0.0,0.0,
896,Ca1F6Rh1,mp-9928,CaRhF6,"['Ca', 'Rh', 'F']",8.0,-40.03064812,0.00010281144653312424,0.0,
17085,Ca2O6Rh2,mp-1078659,CaRhO3,"['Ca', 'Rh', 'O']",10.0,-65.2361445,0.00041372993164134897,0.0,
21042,Ca4O12Ru4,mp-20947,CaRuO3,"['Ca', 'Ru', 'O']",20.0,-140.78531403,0.00031881388085963636,0.0,
17245,Ca1S1,mp-1672,CaS,"['Ca', 'S']",2.0,-10.43891487,3.1820654298186923e-06,0.0,
13780,Ca8Cl16O48S16,mp-556040,CaS2(ClO3)2,"['Ca', 'S', 'Cl', 'O']",88.0,-488.54431582,9.522597658850884e-06,0.0,
3944,Ca4O40S12,mp-1019581,CaS3O10,"['Ca', 'S', 'O']",56.0,-344.97963343,0.0003982172098222492,0.0,
5662,Ca2O8S2,mp-4406,CaSO4,"['Ca', 'S', 'O']",12.0,-78.40091203,5.052187500353966e-06,0.0,
24255,Ca2O20S12Sb20,mp-504882,CaSb10(S3O5)2,"['Ca', 'Sb', 'S', 'O']",54.0,-293.73270944,0.0,2.042810365310288e-14,
18000,Ca2Sb4,mp-7493,CaSb2,"['Ca', 'Sb']",6.0,-24.20339455,0.001014548673502702,0.0,
12857,Ca4F56H8Sb8,mp-780667,CaSb2H2F14,"['Ca', 'Sb', 'H', 'F']",76.0,-358.65900345,0.0015303276264395649,0.0,
9516,Au2Ca2Sb2,mp-16245,CaSbAu,"['Ca', 'Sb', 'Au']",6.0,-23.62180145,0.017058489921061515,0.0,
4883,Ca4Pd4Sb4,mp-1213959,CaSbPd,"['Ca', 'Sb', 'Pd']",12.0,-56.46196231,0.0,0.0,
12836,Ca4Pt4Sb4,mp-8487,CaSbPt,"['Ca', 'Sb', 'Pt']",12.0,-60.54800584,0.0,0.0,
22286,Ca4O16Sc8,mp-4056,CaSc2O4,"['Ca', 'Sc', 'O']",28.0,-232.80079862,0.002698162427455131,0.0,
10751,Al4Ca4O24Sc4Si4,mp-39167,CaScAlSiO6,"['Ca', 'Sc', 'Al', 'Si', 'O']",40.0,-315.71555624,0.0003663101610520414,0.0,
26377,Ca1Se1,mp-1415,CaSe,"['Ca', 'Se']",2.0,-9.54614691,0.00022010121337956434,0.0,
18138,Ca8O40Se16,mp-27845,CaSe2O5,"['Ca', 'Se', 'O']",64.0,-364.94633228,5.329070518200751e-15,5.329070518200751e-15,
8652,Ca4O12Se4,mp-557997,CaSeO3,"['Ca', 'Se', 'O']",20.0,-119.27611821,0.008002268210937302,1.7763568394002505e-15,
12070,Ca4O16Se4,mp-1190379,CaSeO4,"['Ca', 'Se', 'O']",24.0,-140.90241739,0.00020755890462265114,0.0,
11567,Ca2Si2,mp-1563,CaSi,"['Ca', 'Si']",4.0,-17.01569823,0.001680136866454518,0.0,
13624,B8Ca4O32Si8,mp-6419,CaSi2(BO4)2,"['Ca', 'Si', 'B', 'O']",52.0,-407.30635756,0.0,0.0,
24930,Ca12N24O24Si24,mp-556884,CaSi2(NO)2,"['Ca', 'Si', 'N', 'O']",84.0,-649.7207489,3.9151162575024046e-05,0.0,
29910,Ca1Ir1Si3,mp-1068653,CaSi3Ir,"['Ca', 'Si', 'Ir']",5.0,-30.29004151,0.0,0.0,
24075,Ca2Ir6Si14,mp-1191649,CaSi7Ir3,"['Ca', 'Si', 'Ir']",22.0,-147.15258991,0.0,0.0,
13933,Au1Ca1Si1,mp-1227046,CaSiAu,"['Ca', 'Si', 'Au']",3.0,-12.64054484,0.03665435044569332,0.0,
9126,Ca16N32Si16,mp-568965,CaSiN2,"['Ca', 'Si', 'N']",64.0,-464.10319796,0.0,0.0,
16522,Ca2Ni4Si2,mp-10797,CaSiNi2,"['Ca', 'Si', 'Ni']",8.0,-42.33892565,0.0008731472045901967,0.0,
3682,Ca12O36Si12,mp-5733,CaSiO3,"['Ca', 'Si', 'O']",60.0,-449.44764742,5.754263012747174e-06,-7.105427357601002e-15,
12377,Ca4Pt4Si4,mp-4478,CaSiPt,"['Ca', 'Si', 'Pt']",12.0,-65.71895945,0.0,0.0,
6844,Ag2Ca1Sm1,mp-1183560,CaSmAg2,"['Ca', 'Sm', 'Ag']",4.0,-13.63481699,0.0,0.0,
23541,B12Ca1Sm1,mp-1227050,CaSmB12,"['Ca', 'Sm', 'B']",14.0,-93.02977787,0.0,0.0,
184,Ca1Cd2Sm1,mp-864620,CaSmCd2,"['Ca', 'Sm', 'Cd']",4.0,-9.9995696,0.0,0.0,
100,Ca1Hg2Sm1,mp-866014,CaSmHg2,"['Ca', 'Sm', 'Hg']",4.0,-9.50270177,0.0,0.0,
17153,Ca2Mn4O12Sm2,mp-1227151,CaSmMn2O6,"['Ca', 'Sm', 'Mn', 'O']",20.0,-149.8462816,1.4210854715202004e-14,0.0,
27893,Ca1Sm1Zn2,mp-866061,CaSmZn2,"['Ca', 'Sm', 'Zn']",4.0,-10.46776389,0.0,0.0,
7023,Ca2Sn2,mp-2450,CaSn,"['Ca', 'Sn']",4.0,-14.62278805,0.0,0.0,
12492,B2Ca1O6Sn1,mp-14398,CaSn(BO3)2,"['Ca', 'Sn', 'B', 'O']",10.0,-73.31398995,7.059277331578073e-07,0.0,
7483,Ca6O72S18Sn6,mp-2713880,CaSn(SO4)3,"['Ca', 'Sn', 'S', 'O']",102.0,-634.02489029,0.013415181171874124,0.0,
31595,Ca2Ir2Sn4,mp-11957,CaSn2Ir,"['Ca', 'Sn', 'Ir']",8.0,-42.3772611,0.0,-8.881784197001252e-16,
5213,Ca2Pd2Sn4,mp-11958,CaSn2Pd,"['Ca', 'Sn', 'Pd']",8.0,-35.73975616,0.003178291889648577,0.0,
10282,Ca2Rh2Sn4,mp-11959,CaSn2Rh,"['Ca', 'Sn', 'Rh']",8.0,-40.04002603,1.688785156250816e-05,-8.881784197001252e-16,
26271,Ca1Sn3,mp-11290,CaSn3,"['Ca', 'Sn']",4.0,-15.66169308,3.9939152221890595e-05,0.0,
16685,Ca1O24P6Sn4,mp-984716,CaSn4(PO4)6,"['Ca', 'Sn', 'P', 'O']",35.0,-243.5996437,0.0021424135379328746,0.0,
20827,Au20Ca20Sn20,mp-29561,CaSnAu,"['Ca', 'Sn', 'Au']",60.0,-230.05925905,0.00016616793294277343,0.0,
31072,Au2Ca1Sn1,mp-977359,CaSnAu2,"['Ca', 'Sn', 'Au']",4.0,-14.93259986,0.022720358914749106,0.0,
11371,Ca1F6Sn1,mp-8224,CaSnF6,"['Ca', 'Sn', 'F']",8.0,-41.93862965,1.6546740722489517e-05,0.0,
23760,Ca2Hg2Sn2,mp-1019104,CaSnHg,"['Ca', 'Sn', 'Hg']",6.0,-15.72697483,0.00013107310262050476,0.0,
22486,Ca4N8Sn4,mp-1029633,CaSnN2,"['Ca', 'Sn', 'N']",16.0,-97.68015921,0.0,0.0,
28499,Ca2O6Sn2,mp-4190,CaSnO3,"['Ca', 'Sn', 'O']",10.0,-64.39295226,6.217248937900877e-15,6.217248937900877e-15,
6365,Ca4Pd4Sn4,mp-30437,CaSnPd,"['Ca', 'Sn', 'Pd']",12.0,-54.45403343,0.0,0.0,
23458,Ca4Pt4Sn4,mp-1102040,CaSnPt,"['Ca', 'Sn', 'Pt']",12.0,-59.33146559,0.001732916633301329,0.0,
4137,Ca1Rh2Sn1,mp-861935,CaSnRh2,"['Ca', 'Sn', 'Rh']",4.0,-22.94821191,0.008971472166341421,0.0,
27005,Bi4Ca2O18Ta4,mp-556697,CaTa2Bi2O9,"['Ca', 'Ta', 'Bi', 'O']",28.0,-223.49251723,0.0002072006305784413,0.0,
19101,Ca4O24Ta8,mp-18229,CaTa2O6,"['Ca', 'Ta', 'O']",36.0,-330.52480554,0.0,0.0,
23631,Ca2O22Ta8,mp-3079,CaTa4O11,"['Ca', 'Ta', 'O']",32.0,-302.33656753,1.221006103513389e-05,0.0,
24241,Ca2O72P18Ta10,mp-2713900,CaTa5(PO4)9,"['Ca', 'Ta', 'P', 'O']",102.0,-834.18674736,0.005580621011027631,0.0,
19299,Al2Ca2O10Ta2,mp-15733,CaTaAlO5,"['Ca', 'Ta', 'Al', 'O']",16.0,-133.59113739,-1.5987211554602254e-14,0.0,
13425,Ca12F84Ta12,mp-558235,CaTaF7,"['Ca', 'Ta', 'F']",108.0,-703.3865621,4.537769096302213e-05,0.0,
20254,Ca1Hg2Tb1,mp-1183566,CaTbHg2,"['Ca', 'Tb', 'Hg']",4.0,-9.38809948,2.220446049250313e-15,0.0,
16682,Ca1Rh2Tb1,mp-1183546,CaTbRh2,"['Ca', 'Tb', 'Rh']",4.0,-23.794684,0.022640905804801825,0.0,
29421,Ca2N6Tc2,mp-989638,CaTcN3,"['Ca', 'Tc', 'N']",10.0,-78.45181688,0.0001094863164130544,0.0,
17668,Ca4O12Tc4,mp-1188853,CaTcO3,"['Ca', 'Tc', 'O']",20.0,-150.09881373,0.0007876277089842176,0.0,
17281,Ca1Te1,mp-1519,CaTe,"['Ca', 'Te']",2.0,-8.44558094,0.0,0.0,
3305,Ca4O20Te8,mp-5040,CaTe2O5,"['Ca', 'Te', 'O']",32.0,-185.52338768,5.329070518200751e-15,5.329070518200751e-15,
23930,Ca2O16Te6,mp-15511,CaTe3O8,"['Ca', 'Te', 'O']",24.0,-136.56913091,0.0,0.0,
13945,Ca20O60Te20,mp-1366217,CaTeO3,"['Ca', 'Te', 'O']",100.0,-599.74290356,1.7017046989309392e-06,0.0,