,Composition,MaterialId,Reduced Formula,Elements,NSites,Corrected Energy,Decomposition Energy Per Atom All,Decomposition Energy Per Atom MP,Directory
24122,Bi2Cs2Nb4O14,mp-562854,CsNb2BiO7,"['Cs', 'Nb', 'Bi', 'O']",22.0,-168.29503442,0.0,1.4210854715202004e-14,
1005,Cs4Nb8P4S40,mp-641699,CsNb2PS10,"['Cs', 'Nb', 'P', 'S']",56.0,-312.57120648,0.004558315856585615,0.0,
20704,Cs4Nb8P4Se40,mp-1195822,CsNb2PSe10,"['Cs', 'Nb', 'P', 'Se']",56.0,-278.96838352,0.0011635746637832511,0.0,
7264,Cs4Nb12O60P12,mp-1213520,CsNb3(PO5)3,"['Cs', 'Nb', 'P', 'O']",88.0,-701.14066533,0.0002593017808951714,0.0,
20590,Br28Cs4Nb12S4,mp-573274,CsNb3SBr7,"['Cs', 'Nb', 'S', 'Br']",48.0,-241.83328312,8.66363769702616e-06,0.0,
9519,Ag2Cs2Nb8P4S40,mp-1226881,CsNb4Ag(PS10)2,"['Cs', 'Nb', 'Ag', 'P', 'S']",56.0,-311.67679294,0.0002930172195876324,0.0,
3456,Br22Cs2Nb8,mp-569853,CsNb4Br11,"['Cs', 'Nb', 'Br']",32.0,-151.52468337,0.013112555464468656,0.0,
16672,Cl22Cs2Nb8,mp-582146,CsNb4Cl11,"['Cs', 'Nb', 'Cl']",32.0,-166.88785075,0.006596656758635078,0.0,
14652,Cl12Cs2Nb2,mp-1213080,CsNbCl6,"['Cs', 'Nb', 'Cl']",16.0,-67.8404663,0.00014729744262709232,0.0,
24113,Cs1F6Nb1,mp-11980,CsNbF6,"['Cs', 'Nb', 'F']",8.0,-47.15438548,5.1309934081977815e-05,0.0,
2220,Cs16N32Nb16,mp-1030663,CsNbN2,"['Cs', 'Nb', 'N']",64.0,-490.2269867,0.0,0.0,
5841,Cs2F8Nb2Ni2O4,mp-684827,CsNbNi(OF2)2,"['Cs', 'Nb', 'Ni', 'O', 'F']",18.0,-108.99468458,0.002262891443143289,0.0,
6321,Cs8Nb8O24,mp-27556,CsNbO3,"['Cs', 'Nb', 'O']",40.0,-303.61927715,1.4210854715202004e-14,0.0,
27282,Cs4Nb4O36S8,mp-1196826,CsNbS2O9,"['Cs', 'Nb', 'S', 'O']",52.0,-348.90751956,0.00023546838491483868,0.0,
10718,Cs4Nb4O32V8,mp-1194659,CsNbV2O8,"['Cs', 'Nb', 'V', 'O']",48.0,-364.55851407,0.006906572312825432,0.0,
20969,Cs2Nb2O12W2,mp-1225952,CsNbWO6,"['Cs', 'Nb', 'W', 'O']",18.0,-137.53208986,0.00011328712890446013,0.0,
28383,Cs2Mo4Nd2O16,mp-1213270,CsNd(MoO4)2,"['Cs', 'Nd', 'Mo', 'O']",24.0,-170.80399857,0.004532718478190034,0.0,
7036,Cs6Nd6O72P24,mp-1226879,CsNd(PO3)4,"['Cs', 'Nd', 'P', 'O']",108.0,-786.85260306,0.00031804711516159045,0.0,
27374,Cs2Nd2O16W4,mp-1213150,CsNd(WO4)2,"['Cs', 'Nd', 'W', 'O']",24.0,-176.79116218,0.0006463441031900885,0.0,
11725,Ag6Cs2Nd4Te10,mp-1190370,CsNd2Ag3Te5,"['Cs', 'Nd', 'Ag', 'Te']",22.0,-89.32795642,2.367058416208323e-05,7.993605777301127e-15,
21497,Cs2Cu2Nd4Se8,mp-862772,CsNd2CuSe4,"['Cs', 'Nd', 'Cu', 'Se']",16.0,-80.91031013,0.0016064446643069275,0.0,
6866,Cd2Cs2Nd2Te6,mp-1103178,CsNdCdTe3,"['Cs', 'Nd', 'Cd', 'Te']",12.0,-45.26670078,0.0003733262150023009,-3.552713678800501e-15,
5919,Cs2Hg2Nd2Se6,mp-510065,CsNdHgSe3,"['Cs', 'Nd', 'Hg', 'Se']",12.0,-47.70347807,1.1561132815529618e-06,0.0,
22708,Cs2Nd2O4,mp-553308,CsNdO2,"['Cs', 'Nd', 'O']",8.0,-51.16859889,0.0,0.0,
31480,Cs2Nd2S4,mp-1095172,CsNdS2,"['Cs', 'Nd', 'S']",8.0,-42.23804011,2.0258619384705412e-05,0.0,
30496,Cs1Nd1Te2,mp-11742,CsNdTe2,"['Cs', 'Nd', 'Te']",4.0,-17.56247649,0.0,0.0,
15859,Cs2Nd2Te6Zn2,mp-12342,CsNdZnTe3,"['Cs', 'Nd', 'Zn', 'Te']",12.0,-45.9726256,2.67878010973277e-06,0.0,
7400,Br6Cs2Ni2,mp-1080570,CsNiBr3,"['Cs', 'Ni', 'Br']",10.0,-32.95485824,0.0,0.0,
18766,Cl6Cs2Ni2,mp-22950,CsNiCl3,"['Cs', 'Ni', 'Cl']",10.0,-36.53591391,0.00014796752050827422,0.0,
3268,Cs2F6Ni2,mp-557772,CsNiF3,"['Cs', 'Ni', 'F']",10.0,-43.05460699,0.00018773239647984497,-4.440892098500626e-15,
19706,Ag2Cs2Np2S6,mp-1102595,CsNpAgS3,"['Cs', 'Np', 'Ag', 'S']",12.0,-71.38351751,5.3594544270119115e-05,0.0,
287,Cl8Cs4Np4O12,mp-1193524,CsNpCl2O3,"['Cs', 'Np', 'Cl', 'O']",28.0,-188.85744573,0.04021910702227327,3.552713678800501e-15,
452,Cs2Cu2Np2S6,mp-862802,CsNpCuS3,"['Cs', 'Np', 'Cu', 'S']",12.0,-74.94840562,0.0017231512548825378,-5.329070518200751e-15,
23757,Cs4Mo4Np4O24,mp-1213571,CsNpMoO6,"['Cs', 'Np', 'Mo', 'O']",36.0,-285.15952182,0.001623756410591426,0.0,
30747,Cs4Mo4Np4O28,mp-1201281,CsNpMoO7,"['Cs', 'Np', 'Mo', 'O']",40.0,-305.37457436,0.05852319005252227,0.0,
29701,Cs1O2,mp-1441,CsO2,"['Cs', 'O']",3.0,-13.40886666,0.0,0.0,
27721,Cs2O18Os4,mp-734596,CsOs2O9,"['Cs', 'Os', 'O']",24.0,-159.44162711,0.04969700840843938,0.0,
14221,C12Cl12Cs4O12Os4,mp-1196677,CsOsC3(ClO)3,"['Cs', 'Os', 'C', 'Cl', 'O']",44.0,-285.77540892,0.005539877840469387,0.0,
30306,Cs4H8O8P4,mp-1192733,CsP(HO)2,"['Cs', 'P', 'H', 'O']",24.0,-123.92566929,0.0007202971207682651,0.0,
17339,Cs4H8O16P4,mp-1197651,CsP(HO2)2,"['Cs', 'P', 'H', 'O']",32.0,-190.48840789,0.002483839283447864,1.1546319456101628e-14,
21425,Cs4F8O8P4,mp-1193041,CsP(OF)2,"['Cs', 'P', 'O', 'F']",24.0,-140.33504466,0.0003583279687502383,0.0,
1658,Cs4H20O32P8,mp-1195974,CsP2H5O8,"['Cs', 'P', 'H', 'O']",64.0,-382.5924508,0.0,0.0,
3197,Cs4P28,mp-1201790,CsP7,"['Cs', 'P']",32.0,-161.47808743,0.00014212712646521908,0.0,
5761,Cs1F6P1,mp-675011,CsPF6,"['Cs', 'P', 'F']",8.0,-39.92704352,0.0018615415063480967,0.0,
5424,Cs8F8H24O32P8,mp-542541,CsPH3O4F,"['Cs', 'P', 'H', 'O', 'F']",80.0,-451.45433145,0.00017098504882895327,0.0,
21713,Cs4H16N8O8P4,mp-767240,CsPH4(NO)2,"['Cs', 'P', 'H', 'N', 'O']",40.0,-228.08793343,0.000982807438477451,1.0658141036401503e-14,
13322,Cs2F2H2O6P2,mp-1229133,CsPHO3F,"['Cs', 'P', 'H', 'O', 'F']",14.0,-82.76376148,6.0459296874704194e-05,0.0,
27810,Cs4O12P4,mp-1213226,CsPO3,"['Cs', 'P', 'O']",20.0,-129.90498163,0.0004389495058587656,0.0,
10192,Cs4O16P4Pb4,mp-1192530,CsPPbO4,"['Cs', 'P', 'Pb', 'O']",28.0,-176.2917578,1.942706473290201e-05,-6.217248937900877e-15,
20422,Cs4P4Pb4S16,mp-562569,CsPPbS4,"['Cs', 'P', 'Pb', 'S']",28.0,-125.66836349,0.0001582567047995198,0.0,
4319,Cs4P4Pb4Se16,mp-1193277,CsPPbSe4,"['Cs', 'P', 'Pb', 'Se']",28.0,-111.80420285,0.012305141383330387,0.0,
1123,Cs2P2S6,mp-504838,CsPS3,"['Cs', 'P', 'S']",10.0,-44.46821428,0.0,0.0,
22844,Cs4P4Se24,mp-1225967,CsPSe6,"['Cs', 'P', 'Se']",32.0,-120.42555569,0.0012235518933110257,0.0,
12082,Cs1O3Pa1,mp-1183920,CsPaO3,"['Cs', 'Pa', 'O']",5.0,-40.52327222,0.009795031097656448,0.0,
2024,Cl10Cs2Pb4,mp-984872,CsPb2Cl5,"['Cs', 'Pb', 'Cl']",16.0,-57.27538198,0.00021078735229851375,3.552713678800501e-15,
11348,Br12Cs4Pb4,mp-567681,CsPbBr3,"['Cs', 'Pb', 'Br']",20.0,-64.40524881,0.0008910568144497866,-3.1086244689504383e-15,
22580,Cl6Cs2Pb2,mp-1539667,CsPbCl3,"['Cs', 'Pb', 'Cl']",10.0,-35.51644919,0.0013417997500071444,7.105427357601002e-15,
22598,Cs2F6Pb2,mp-20282,CsPbF3,"['Cs', 'Pb', 'F']",10.0,-45.76854985,0.00017284397949257624,0.0,
26895,Cs4I12Pb4,mp-540839,CsPbI3,"['Cs', 'Pb', 'I']",20.0,-57.48718484,0.0002585421186496184,-2.6645352591003757e-15,
31104,Cs2F10Pd4,mp-5972,CsPd2F5,"['Cs', 'Pd', 'F']",16.0,-67.35741602,0.0028038749533827456,0.0,
7304,Br3Cs1Pd1,mp-998307,CsPdBr3,"['Cs', 'Pd', 'Br']",5.0,-15.57537056,0.041427705321775754,0.0,
27412,C8Cs4O24Pr4,mp-18698,CsPr(CO3)2,"['Cs', 'Pr', 'C', 'O']",40.0,-300.37469333,0.0,-1.4210854715202004e-14,
7855,Cs2Mo4O16Pr2,mp-572452,CsPr(MoO4)2,"['Cs', 'Pr', 'Mo', 'O']",24.0,-170.74516393,0.0007744704459629048,0.0,
23822,Br36Cs2Nb12Pr2,mp-1213382,CsPr(NbBr3)6,"['Cs', 'Pr', 'Nb', 'Br']",52.0,-251.33211607,0.0036011849143440244,0.0,
22179,Cs2O24P8Pr2,mp-17770,CsPr(PO3)4,"['Cs', 'Pr', 'P', 'O']",36.0,-262.12600146,4.577771267832986e-06,0.0,
31181,Cs4O32Pr4S8,mp-540686,CsPr(SO4)2,"['Cs', 'Pr', 'S', 'O']",48.0,-314.60749158,8.265425781317504e-05,0.0,
12687,Cs2O16Pr2W4,mp-1213319,CsPr(WO4)2,"['Cs', 'Pr', 'W', 'O']",24.0,-176.7342283,0.0008245023925788075,0.0,
8643,Ag6Cs2Pr4Te10,mp-1190295,CsPr2Ag3Te5,"['Cs', 'Pr', 'Ag', 'Te']",22.0,-89.38605235,0.0015003920055045583,0.0,
1637,Cl56Cs8Pr16,mp-1213617,CsPr2Cl7,"['Cs', 'Pr', 'Cl']",80.0,-368.16847127,5.097252832442223e-05,8.881784197001252e-15,
17471,C2Cs2I12Pr6,mp-1190682,CsPr3CI6,"['Cs', 'Pr', 'C', 'I']",22.0,-96.55769002,0.0007060649866836854,0.0,
29546,Cd2Cs2Pr2Se6,mp-11118,CsPrCdSe3,"['Cs', 'Pr', 'Cd', 'Se']",12.0,-50.45474275,0.0013908095499672868,0.0,
1350,Cd2Cs2Pr2Te6,mp-12494,CsPrCdTe3,"['Cs', 'Pr', 'Cd', 'Te']",12.0,-45.32197991,1.0460131791845129e-06,0.0,
6917,Cs2Hg2Pr2Se6,mp-7211,CsPrHgSe3,"['Cs', 'Pr', 'Hg', 'Se']",12.0,-47.70624105,0.0013870678548171256,0.0,
17168,Cs2Pr2S4,mp-9037,CsPrS2,"['Cs', 'Pr', 'S']",8.0,-42.21132144,0.0,0.0,
31572,Cs2Pr2Te6Zn2,mp-12341,CsPrZnTe3,"['Cs', 'Pr', 'Zn', 'Te']",12.0,-45.99043851,1.868958332984505e-06,0.0,
6183,Cs2Pt4Se6,mp-573316,CsPt2Se3,"['Cs', 'Pt', 'Se']",12.0,-54.99223596,0.0,0.0,
24958,Cs4P8Pu4S28,mp-680370,CsPuP2S7,"['Cs', 'Pu', 'P', 'S']",44.0,-255.41163143,0.001964325854026505,-1.0658141036401503e-14,
16035,Cl48Cs8Mn16Rb8,mp-568508,CsRb(MnCl3)2,"['Cs', 'Rb', 'Mn', 'Cl']",80.0,-368.12734161,0.008698949479488682,0.0,
12101,Cs1Rb14Tl27,mp-1197177,CsRb14Tl27,"['Cs', 'Rb', 'Tl']",42.0,-83.45953937,0.0,0.0,
7247,Au7Cs1Rb2,mp-1228855,CsRb2Au7,"['Cs', 'Rb', 'Au']",10.0,-28.50399293,0.0007083729868169186,4.440892098500626e-16,
7512,Cs1F6Mo1Rb2,mp-1111457,CsRb2MoF6,"['Cs', 'Rb', 'Mo', 'F']",10.0,-48.10115076,0.05872466246435071,0.0,
25445,Cs2F10Pd2Rb4,mp-8202,CsRb2PdF5,"['Cs', 'Rb', 'Pd', 'F']",18.0,-75.87084251,0.0,0.0,
14165,Cs4F60Rb8Sb16,mp-1196297,CsRb2Sb4F15,"['Cs', 'Rb', 'Sb', 'F']",88.0,-414.35566952,0.001857484009005539,0.0,
6051,Cs4Mo12O68P12Rb4,mp-1213522,CsRbMo3P3O17,"['Cs', 'Rb', 'Mo', 'P', 'O']",100.0,-693.1456049,0.0003061824453132189,1.7763568394002505e-15,
19845,B4Cl60Cs4Rb4Zr24,mp-1213588,CsRbZr6BCl15,"['Cs', 'Rb', 'Zr', 'B', 'Cl']",96.0,-524.75760994,2.591371097970807e-05,2.6645352591003757e-15,
19817,Cl16Cs4O8Re4,mp-572546,CsRe(Cl2O)2,"['Cs', 'Re', 'Cl', 'O']",32.0,-162.61907772,0.00011711241821288354,0.0,
30900,Cl12Cs4Os4Re8Se16,mp-1228026,CsRe2OsSe4Cl3,"['Cs', 'Re', 'Os', 'Se', 'Cl']",44.0,-261.06291254,0.0005055666068880527,5.329070518200751e-15,
17300,Cs2F20O12Re6,mp-541867,CsRe3(O3F5)2,"['Cs', 'Re', 'O', 'F']",40.0,-257.26875149,1.4031797119784528e-06,0.0,
7427,Br8Cs4Re12S16,mp-683890,CsRe3(S2Br)2,"['Cs', 'Re', 'S', 'Br']",40.0,-265.80847305,0.00042739494140686674,6.217248937900877e-15,
16214,Br8Cs4Re12Se16,mp-1202357,CsRe3(Se2Br)2,"['Cs', 'Re', 'Se', 'Br']",40.0,-251.55857974,0.0,1.7763568394002505e-15,
688,Cs4I12Re24Se32,mp-680185,CsRe6Se8I3,"['Cs', 'Re', 'Se', 'I']",72.0,-471.18674516,0.005857013073187645,0.0,
19821,Br32Cs8Re8,mp-27783,CsReBr4,"['Cs', 'Re', 'Br']",48.0,-200.21221801,0.021994686567158084,0.0,
8750,Cs1F6Re1,mp-9632,CsReF6,"['Cs', 'Re', 'F']",8.0,-43.83570981,0.0010674093090718983,-1.0658141036401503e-14,
9502,Cs2F16Re2,mp-29842,CsReF8,"['Cs', 'Re', 'F']",20.0,-101.79489698,3.066649414407152e-06,0.0,
6768,Cs8N16Re8,mp-1097067,CsReN2,"['Cs', 'Re', 'N']",32.0,-246.44928774,0.02060788917765244,0.0,
11841,Cs4O16Re4,mp-17621,CsReO4,"['Cs', 'Re', 'O']",24.0,-178.12178678,0.005457477306315184,0.0,
19846,Cs4F24O4Re4,mp-557451,CsReOF6,"['Cs', 'Re', 'O', 'F']",36.0,-201.14883405,0.0005513999511714829,0.0,
5533,Cs24Re24S48,mp-1199798,CsReS2,"['Cs', 'Re', 'S']",96.0,-595.36531784,0.0030905300743411246,0.0,
3879,Cs1F6Ru1,mp-8015,CsRuF6,"['Cs', 'Ru', 'F']",8.0,-38.63037512,-8.881784197001252e-15,0.0,
24683,Cs2S2,mp-29266,CsS,"['Cs', 'S']",4.0,-13.79618714,1.1400577392350897e-05,0.0,
13835,Cs2F4O12S4,mp-1191332,CsS2(O3F)2,"['Cs', 'S', 'O', 'F']",22.0,-118.64885635,0.0063013732191601335,-1.0658141036401503e-14,
13427,Cs4S12,mp-1188913,CsS3,"['Cs', 'S']",16.0,-61.89990486,0.0009827986669925792,0.0,
29473,Cs4O12S4,mp-561681,CsSO3,"['Cs', 'S', 'O']",20.0,-112.75398669,0.01763511955225816,0.0,
5809,Cs4F4O12S4,mp-622195,CsSO3F,"['Cs', 'S', 'O', 'F']",24.0,-131.36630851,0.00797353966308556,-2.6645352591003757e-15,
20301,Cs2O8S2,mp-1103912,CsSO4,"['Cs', 'S', 'O']",12.0,-66.78290215,0.05705633951518507,0.0,
24575,Cs8Sb8,mp-573514,CsSb,"['Cs', 'Sb']",16.0,-47.21392063,0.0004703536914063555,0.0,
9292,Cs1O8P2Sb1,mp-554822,CsSb(PO4)2,"['Cs', 'Sb', 'P', 'O']",12.0,-79.58587581,0.0002501003466797158,0.0,
20256,Cs4O32S8Sb4,mp-1195448,CsSb(SO4)2,"['Cs', 'Sb', 'S', 'O']",48.0,-284.2621484,0.00032056759440113325,0.0,
27603,Cs4F44Sb8,mp-556061,CsSb2F11,"['Cs', 'Sb', 'F']",56.0,-256.70445448,0.00012726462191370302,4.440892098500626e-15,
2181,Cs2F14Sb4,mp-556583,CsSb2F7,"['Cs', 'Sb', 'F']",20.0,-94.79330514,0.0001465655097749874,8.881784197001252e-15,
4071,Cs4O32P4Sb8,mp-1197959,CsSb2PO8,"['Cs', 'Sb', 'P', 'O']",48.0,-301.39896388,0.00019393894205776974,0.0,
31613,Cs8F128Sb24,mp-683925,CsSb3F16,"['Cs', 'Sb', 'F']",160.0,-728.17576779,0.0,0.0,
17036,Cl12Cs2Sb2,mp-567583,CsSbCl6,"['Cs', 'Sb', 'Cl']",16.0,-49.50528046,0.0007669370397977993,0.0,
20544,Cl4Cs4F12Sb4,mp-23576,CsSbClF3,"['Cs', 'Sb', 'Cl', 'F']",24.0,-104.77714015,3.9636694336486755e-05,8.881784197001252e-16,
21,Cs8F32Sb8,mp-29296,CsSbF4,"['Cs', 'Sb', 'F']",48.0,-224.30532286,0.00018155957762822084,-8.881784197001252e-15,
4386,Cs1F6Sb1,mp-9636,CsSbF6,"['Cs', 'Sb', 'F']",8.0,-37.12719385,8.45307617236557e-06,0.0,
22826,Cs2H8O10Sb2,mp-1192790,CsSbH4O5,"['Cs', 'Sb', 'H', 'O']",22.0,-115.61247006,0.0014640406853683174,0.0,
26664,Cs2O4Sb2,mp-510273,CsSbO2,"['Cs', 'Sb', 'O']",8.0,-41.9512921,9.95501220701911e-05,0.0,
28075,Cs12F48O12Sb12,mp-667360,CsSbOF4,"['Cs', 'Sb', 'O', 'F']",84.0,-412.39276968,0.0009602730617555011,4.440892098500626e-15,
19516,Cs4F8O16S4Sb4,mp-1213195,CsSbS(O2F)2,"['Cs', 'Sb', 'S', 'O', 'F']",36.0,-198.85898274,0.001814074686415701,-5.329070518200751e-15,
24143,Cs4S8Sb4,mp-561639,CsSbS2,"['Cs', 'Sb', 'S']",16.0,-64.73865532,0.012709732960202835,-1.7763568394002505e-15,
543,Cs4S24Sb4,mp-28701,CsSbS6,"['Cs', 'Sb', 'S']",32.0,-131.21668931,3.979557983413429e-05,0.0,
21186,Cs1F6O18S6Sb1,mp-505281,CsSbS6(O3F)6,"['Cs', 'Sb', 'S', 'O', 'F']",32.0,-177.16085905,1.3815545654161099e-05,0.0,
26606,Cs4Sb4Se8,mp-2969,CsSbSe2,"['Cs', 'Sb', 'Se']",16.0,-59.36103151,0.005989077530515807,7.105427357601002e-15,
677,Cs2O12Sb2Te2,mp-1225923,CsSbTeO6,"['Cs', 'Sb', 'Te', 'O']",18.0,-100.29186941,0.00014348546875009305,0.0,
19560,Cs2O12Sb2W2,mp-1540169,CsSbWO6,"['Cs', 'Sb', 'W', 'O']",18.0,-117.36590791,0.0,0.0,
2463,Cs1O8S2Sc1,mp-1213159,CsSc(SO4)2,"['Cs', 'Sc', 'S', 'O']",12.0,-79.75930033,0.008912579311523672,0.0,
16662,Cs4O24Sc4Se8,mp-1194629,CsSc(SeO3)2,"['Cs', 'Sc', 'Se', 'O']",40.0,-245.89951127,0.0003296132695309595,0.0,
28393,Cs1O8Sc1W2,mp-1213157,CsSc(WO4)2,"['Cs', 'Sc', 'W', 'O']",12.0,-89.53347067,0.0031771013525396796,0.0,
31551,Cs1Cu2Sc3Te6,mp-607477,CsSc3(CuTe3)2,"['Cs', 'Sc', 'Cu', 'Te']",12.0,-58.55826955,0.010000985172525567,0.0,
14233,Cs2F20Sc6,mp-1213153,CsSc3F10,"['Cs', 'Sc', 'F']",28.0,-184.21507355,0.0052737098842081664,0.0,
9762,As6Cs3H6O24Sc3,mp-1199276,CsScAs2(HO4)2,"['Cs', 'Sc', 'As', 'H', 'O']",42.0,-262.61997145,0.0009111615327386247,0.0,
18098,Cs2O4Sc2,mp-754826,CsScO2,"['Cs', 'Sc', 'O']",8.0,-55.33811928,0.05216042874511739,0.0,
25778,Cs4H8O32P8Sc4,mp-543046,CsScP2(HO4)2,"['Cs', 'Sc', 'P', 'H', 'O']",56.0,-386.93597414,3.50338420762597e-05,0.0,
9223,Cs2Sc2Se10U2,mp-1105612,CsScUSe5,"['Cs', 'Sc', 'U', 'Se']",16.0,-92.45909993,0.004872792867834264,0.0,
13264,Cs32Si32,mp-1370,CsSi,"['Cs', 'Si']",64.0,-206.10780094,0.0,0.0,
26375,B8Cs8O48Si16,mp-1019719,CsSi2BO6,"['Cs', 'Si', 'B', 'O']",80.0,-596.23125809,0.0,0.0,
17943,Cs4H4O20Si8,mp-1226125,CsSi2HO5,"['Cs', 'Si', 'H', 'O']",36.0,-246.22188104,0.00021369262803272449,-6.217248937900877e-15,
5112,Cs2Mo6O50P12Si4,mp-1213518,CsSi2Mo3P6O25,"['Cs', 'Si', 'Mo', 'P', 'O']",74.0,-544.68018188,0.0006557914759302008,-2.842170943040401e-14,
16288,Cs12O84Sb12Si24,mp-581955,CsSi2SbO7,"['Cs', 'Si', 'Sb', 'O']",132.0,-908.99584754,6.217248937900877e-15,0.0,
27006,Bi4Cs4S16Si4,mp-558426,CsSiBiS4,"['Cs', 'Si', 'Bi', 'S']",28.0,-129.82194104,0.00025424630440973317,0.0,
28139,Cs8O40Sb8Si8,mp-1226548,CsSiSbO5,"['Cs', 'Si', 'Sb', 'O']",64.0,-415.33086392,0.00015669396850537254,0.0,
47,Cs4Si4Te12,mp-570957,CsSiTe3,"['Cs', 'Si', 'Te']",20.0,-72.39846387,7.665086035180124e-05,0.0,
21118,Cs2Mo4O16Sm2,mp-1213306,CsSm(MoO4)2,"['Cs', 'Sm', 'Mo', 'O']",24.0,-170.88050777,0.005412573995766223,0.0,
15192,Br36Cs2Nb12Sm2,mp-1213498,CsSm(NbBr3)6,"['Cs', 'Sm', 'Nb', 'Br']",52.0,-251.11315439,-1.865174681370263e-14,0.0,
17479,Cs6O72P24Sm6,mp-1226438,CsSm(PO3)4,"['Cs', 'Sm', 'P', 'O']",108.0,-786.43395864,0.0,0.0,
19446,Cs2O16Sm2W4,mp-1213147,CsSm(WO4)2,"['Cs', 'Sm', 'W', 'O']",24.0,-176.82625044,0.0,0.0,
30179,Ag6Cs2Sm4Te10,mp-1190516,CsSm2Ag3Te5,"['Cs', 'Sm', 'Ag', 'Te']",22.0,-88.9017358,0.0,7.105427357601002e-15,
15537,Cl28Cs4Sm8,mp-1213272,CsSm2Cl7,"['Cs', 'Sm', 'Cl']",40.0,-184.15348926,4.440892098500626e-15,8.881784197001252e-16,
2355,Cd2Cs2Sm2Te6,mp-12497,CsSmCdTe3,"['Cs', 'Sm', 'Cd', 'Te']",12.0,-45.08732148,1.7763568394002505e-15,0.0,
26848,Cs2Mn2Se6Sm2,mp-574651,CsSmMnSe3,"['Cs', 'Sm', 'Mn', 'Se']",12.0,-66.4915332,0.0,0.0,
10143,Cs2O4Sm2,mp-7977,CsSmO2,"['Cs', 'Sm', 'O']",8.0,-51.4183874,0.0,0.0,
9170,Cs1S2Sm1,mp-9082,CsSmS2,"['Cs', 'Sm', 'S']",4.0,-21.10843292,0.0,0.0,
12585,Cs4S16Si4Sm4,mp-561635,CsSmSiS4,"['Cs', 'Sm', 'Si', 'S']",28.0,-150.84012709,0.0,0.0,
22420,Cs32Sn32,mp-571056,CsSn,"['Cs', 'Sn']",64.0,-176.6474786,0.0,0.0,
11896,Cl10Cs2Sn4,mp-30164,CsSn2Cl5,"['Cs', 'Sn', 'Cl']",16.0,-56.82448797,5.156173523301888e-05,3.552713678800501e-15,
25885,Br3Cs1Sn1,mp-27214,CsSnBr3,"['Cs', 'Sn', 'Br']",5.0,-16.03083469,0.0001286949345673527,0.0,
9884,Cl12Cs4Sn4,mp-27394,CsSnCl3,"['Cs', 'Sn', 'Cl']",20.0,-70.66439136,9.475695116512028e-05,0.0,
25226,Cs4F12Sn4,mp-1105915,CsSnF3,"['Cs', 'Sn', 'F']",20.0,-92.67552059,0.002420805827147987,0.0,
9484,Cs1I3Sn1,mp-614013,CsSnI3,"['Cs', 'Sn', 'I']",5.0,-14.26026887,0.00022628734032936748,0.0,
18858,Cs4P4S16Sn4,mp-1193634,CsSnPS4,"['Cs', 'Sn', 'P', 'S']",28.0,-125.15452978,0.009578164421033541,0.0,
10603,Cs2S6Sn2,mp-561710,CsSnS3,"['Cs', 'Sn', 'S']",10.0,-41.66279328,0.0023090844755859763,0.0,
21931,Cs2Se6Sn2,mp-1542038,CsSnSe3,"['Cs', 'Sn', 'Se']",10.0,-37.64231396,1.6833105398461612e-07,0.0,
26626,B6Cs2H24Sr2,mp-1195599,CsSr(BH4)3,"['Cs', 'Sr', 'B', 'H']",34.0,-139.6718845,0.010516322150728286,-1.509903313490213e-14,
4540,Cs1O10Sr2Ta3,mp-7181,CsSr2Ta3O10,"['Cs', 'Sr', 'Ta', 'O']",16.0,-136.15506266,3.331674804485374e-06,0.0,
25646,Br12Cs4Sr4,mp-1213104,CsSrBr3,"['Cs', 'Sr', 'Br']",20.0,-70.58688632,7.677469823841321e-05,0.0,
1469,Cl12Cs4Sr4,mp-1213084,CsSrCl3,"['Cs', 'Sr', 'Cl']",20.0,-78.45397512,0.0002956684384738395,0.0,
19046,Cs2I6Sr2,mp-1080232,CsSrI3,"['Cs', 'Sr', 'I']",10.0,-30.98036342,0.0006245253095675807,0.0,
8458,Cl36Cs2Sr2Ta12,mp-1213360,CsSrTa6Cl18,"['Cs', 'Sr', 'Ta', 'Cl']",52.0,-291.47344615,0.00024897916170196766,0.0,
18248,B4Cs2O12Ta2,mp-9309,CsTa(BO3)2,"['Cs', 'Ta', 'B', 'O']",20.0,-163.66793919,5.457492187943558e-06,0.0,
14649,Cs4Cu8Ta4Te16,mp-505322,CsTa(CuTe2)2,"['Cs', 'Ta', 'Cu', 'Te']",32.0,-149.25809189,0.0,0.0,
13421,Cs1O8P2Ta1,mp-559118,CsTa(PO4)2,"['Cs', 'Ta', 'P', 'O']",12.0,-93.14186498,0.00023953840983281793,0.0,
10946,Cs2O36P10Ta4,mp-557186,CsTa2P5O18,"['Cs', 'Ta', 'P', 'O']",52.0,-406.53657342,0.0,0.0,
7898,Cs4P12S76Ta16,mp-1227943,CsTa4P3S19,"['Cs', 'Ta', 'P', 'S']",108.0,-647.10418422,0.0,0.0,
20806,Cl36Cs2Pb2Ta12,mp-680159,CsTa6PbCl18,"['Cs', 'Ta', 'Pb', 'Cl']",52.0,-287.72253473,0.0012160726502408181,-2.1316282072803006e-14,
9848,Cl12Cs2Ta2,mp-1213077,CsTaCl6,"['Cs', 'Ta', 'Cl']",16.0,-72.87975503,0.00022471080200237026,0.0,
30826,Co2Cs2F8O4Ta2,mp-684727,CsTaCo(OF2)2,"['Cs', 'Ta', 'Co', 'O', 'F']",18.0,-119.38354663,0.0025628784000826244,0.0,
9674,Cs2I12Ta2,mp-606510,CsTaI6,"['Cs', 'Ta', 'I']",16.0,-55.63749098,0.00019542039367470565,-3.552713678800501e-15,
28202,Cs2N4Ta2,mp-34293,CsTaN2,"['Cs', 'Ta', 'N']",8.0,-66.13262594,1.1906425781305074e-05,0.0,
8221,Cs8P8S48Ta8,mp-553976,CsTaPS6,"['Cs', 'Ta', 'P', 'S']",72.0,-399.31737201,0.0005254796245655058,0.0,
22363,Cs2S6Ta2,mp-1225870,CsTaS3,"['Cs', 'Ta', 'S']",10.0,-61.70426546,0.005071610613931021,0.0,
11434,Cs2Se6Ta2,mp-1225880,CsTaSe3,"['Cs', 'Ta', 'Se']",10.0,-56.2921344,0.008652844179687591,0.0,
23491,Cs2Ta2Te6,mp-1228798,CsTaTe3,"['Cs', 'Ta', 'Te']",10.0,-50.30110629,0.00013854397363211035,0.0,
7943,Cs4O32Ta4V8,mp-1194848,CsTaV2O8,"['Cs', 'Ta', 'V', 'O']",48.0,-376.51168637,0.0005045248844393058,3.019806626980426e-14,
227,Cs2O12Ta2W2,mp-1225854,CsTaWO6,"['Cs', 'Ta', 'W', 'O']",18.0,-143.46919568,6.228291447918366e-05,0.0,