,Composition,MaterialId,Reduced Formula,Elements,NSites,Corrected Energy,Decomposition Energy Per Atom All,Decomposition Energy Per Atom MP,Directory
27637,B14Ca7Rh20,mp-568511,Ca7(B7Rh10)2,"['Ca', 'B', 'Rh']",41.0,-280.18377174,0.0,0.0,
4291,Ca7Cl2H12,mp-984055,Ca7(H6Cl)2,"['Ca', 'H', 'Cl']",21.0,-75.80163533,0.0,0.0,
7882,Ca14N18Nb2Si4,mp-567722,Ca7NbSi2N9,"['Ca', 'Nb', 'Si', 'N']",38.0,-264.75154095,0.0,0.0,
4063,Ca14F2Nb2O34Si8,mp-542863,Ca7NbSi4O17F,"['Ca', 'Nb', 'Si', 'O', 'F']",60.0,-448.25819393,1.0643158853795853e-05,0.0,
12859,Ca7Ni4Sn13,mp-31158,Ca7Ni4Sn13,"['Ca', 'Ni', 'Sn']",24.0,-101.01448406,0.007330114138182964,0.0,
15976,Ca28N24Si4,mp-1029474,Ca7SiN6,"['Ca', 'Si', 'N']",56.0,-332.2652539,3.335582449803809e-05,0.0,
30352,Ca7N2Tl3,mp-30961,Ca7Tl3N2,"['Ca', 'Tl', 'N']",12.0,-45.33124354,5.675171224117648e-05,0.0,
26785,Ca14N8Tl2,mp-1227114,Ca7TlN4,"['Ca', 'Tl', 'N']",24.0,-117.61407877,0.0,0.0,
8297,Al6Ca16,mp-1190736,Ca8Al3,"['Ca', 'Al']",22.0,-57.96349763,0.0004919012730821848,0.0,
5598,Ca16In6,mp-1191538,Ca8In3,"['Ca', 'In']",22.0,-55.82334438,0.0004567598601736833,0.0,
3657,B4C8Ca18Cl16,mp-569892,Ca9B2(CCl2)4,"['Ca', 'B', 'C', 'Cl']",46.0,-228.94075036,7.072252037332305e-06,0.0,
15081,Bi18Ca18Cd8,mp-30446,Ca9Cd4Bi9,"['Ca', 'Cd', 'Bi']",44.0,-142.32491701,0.0018028649475239078,0.0,
28048,Ca18Cr2O56P14,mp-560257,Ca9Cr(PO4)7,"['Ca', 'Cr', 'P', 'O']",90.0,-658.1007715,0.0,0.0,
15317,Ca18In2O56P14,mp-555661,Ca9In(PO4)7,"['Ca', 'In', 'P', 'O']",90.0,-646.53108141,2.205008859679225e-05,0.0,
581,Ca18La2O60Ti20,mp-686651,Ca9LaTi10O30,"['Ca', 'La', 'Ti', 'O']",100.0,-817.17689404,0.0003541797171866534,0.0,
14211,Bi18Ca18Zn8,mp-27262,Ca9Zn4Bi9,"['Ca', 'Zn', 'Bi']",44.0,-145.04813705,1.0067027700344511e-07,0.0,
16926,Ca18Sb18Zn8,mp-21594,Ca9Zn4Sb9,"['Ca', 'Zn', 'Sb']",44.0,-156.18965641,7.950575195359022e-05,0.0,
8952,Ac1Au2Ca1,mp-1183474,CaAcAu2,"['Ca', 'Ac', 'Au']",4.0,-15.88168919,0.012104958511964803,0.0,
10397,Ac1Ca1Ga2,mp-1183472,CaAcGa2,"['Ca', 'Ac', 'Ga']",4.0,-13.98388313,0.050082368974324165,0.0,
20899,Ac1Ca1Hg2,mp-865173,CaAcHg2,"['Ca', 'Ac', 'Hg']",4.0,-8.95463387,2.4994642944253798e-05,0.0,
5446,Ac1Ca1In2,mp-985450,CaAcIn2,"['Ca', 'Ac', 'In']",4.0,-13.40456939,0.0,0.0,
20865,Ac1Ca1Rh2,mp-1183483,CaAcRh2,"['Ca', 'Ac', 'Rh']",4.0,-22.67599345,0.0784698799245458,0.0,
25840,Ac1Ca1Tl2,mp-1183500,CaAcTl2,"['Ca', 'Ac', 'Tl']",4.0,-12.51354261,0.0,0.0,
24870,Ac1Ca1Zn2,mp-864962,CaAcZn2,"['Ca', 'Ac', 'Zn']",4.0,-9.73674738,0.0015116642163079952,0.0,
13800,Ag2Ca2,mp-538,CaAg,"['Ca', 'Ag']",4.0,-11.02511478,0.0,0.0,
8974,Ag4Ca2,mp-13270,CaAg2,"['Ca', 'Ag']",6.0,-17.12664972,0.00015547167480489676,0.0,
29228,Ag3As3Ca3,mp-5615,CaAgAs,"['Ca', 'Ag', 'As']",9.0,-35.59372573,-8.881784197001252e-16,-8.881784197001252e-16,
798,Ag2As2Ca2O8,mp-1213950,CaAgAsO4,"['Ca', 'Ag', 'As', 'O']",14.0,-81.77657556,8.827002372768789e-05,0.0,
22262,Ag2Bi2Ca2,mp-568664,CaAgBi,"['Ca', 'Ag', 'Bi']",6.0,-20.80873689,0.0001932631860355194,0.0,
8363,Ag2Ca2O4,mp-997004,CaAgO2,"['Ca', 'Ag', 'O']",8.0,-41.96470509,0.0012148079333496042,0.0,
17451,Ag3Ca3P3,mp-12277,CaAgP,"['Ca', 'Ag', 'P']",9.0,-37.60090997,0.0,0.0,
13828,Ag3Ca3Pb3,mp-1205978,CaAgPb,"['Ca', 'Ag', 'Pb']",9.0,-29.2079037,0.0004856501546224301,-8.881784197001252e-16,
26195,Ag4Ca4Sb4,mp-11214,CaAgSb,"['Ca', 'Ag', 'Sb']",12.0,-44.22903199,0.00874775124023408,0.0,
17708,Ag3Ca3Sn3,mp-1206764,CaAgSn,"['Ca', 'Ag', 'Sn']",9.0,-31.27271166,1.6646745876869318e-05,0.0,
7795,Al4Ca2,mp-2404,CaAl2,"['Ca', 'Al']",6.0,-20.98992152,0.0,0.0,
20790,Al4Ca2O16Si4,mp-1227323,CaAl2(SiO4)2,"['Ca', 'Al', 'Si', 'O']",26.0,-197.95709137,0.0016199833653836038,0.0,
5995,Al4B4Ca2O14,mp-557689,CaAl2B2O7,"['Ca', 'Al', 'B', 'O']",24.0,-183.78428246,0.00016467838378986244,0.0,
14552,Al3Au1Ca1,mp-1226791,CaAl3Au,"['Ca', 'Al', 'Au']",5.0,-18.97373514,0.0005334285429690055,0.0,
6995,Al8Ca2O14,mp-4867,CaAl4O7,"['Ca', 'Al', 'O']",24.0,-176.76459341,-1.4210854715202004e-14,-1.4210854715202004e-14,
11890,Al6Ca1H12O28S4,mp-1194752,CaAl6H12(SO7)4,"['Ca', 'Al', 'H', 'S', 'O']",51.0,-315.28264564,0.00025612007199793396,0.0,
2289,Al18Ca2Ni2,mp-3479,CaAl9Ni,"['Ca', 'Al', 'Ni']",22.0,-88.28618646,0.0012510340549551913,0.0,
27608,Al4Au4Ca4,mp-568424,CaAlAu,"['Ca', 'Al', 'Au']",12.0,-44.4267705,8.381972249349445e-05,0.0,
5679,Al4B4Ca4O16,mp-559759,CaAlBO4,"['Ca', 'Al', 'B', 'O']",28.0,-210.92292216,0.00025049554129452645,0.0,
27874,Al2Ca2F10,mp-8836,CaAlF5,"['Ca', 'Al', 'F']",14.0,-82.49662745,-5.329070518200751e-15,-5.329070518200751e-15,
25831,Al8Ca8H40,mp-966582,CaAlH5,"['Ca', 'Al', 'H']",56.0,-197.42906882,6.860618931359141e-05,0.0,
12992,Al4Ca4Pd4,mp-571039,CaAlPd,"['Ca', 'Al', 'Pd']",12.0,-52.56252798,0.004153781004231583,0.0,
4920,Al4Ca4Pt4,mp-1102631,CaAlPt,"['Ca', 'Al', 'Pt']",12.0,-58.91520752,0.0011656570043943049,0.0,
82,Al6Ca6Si6,mp-570150,CaAlSi,"['Ca', 'Al', 'Si']",18.0,-74.06194177,0.0,0.0,
23837,As6Ca6,mp-888,CaAs,"['Ca', 'As']",12.0,-53.058474,0.0,0.0,
26856,As2Ca1F12,mp-1213993,CaAs2F12,"['Ca', 'As', 'F']",15.0,-70.4681244,0.004540929485678191,0.0,
6170,As8Ca4F72H24,mp-758814,CaAs2H6F18,"['Ca', 'As', 'H', 'F']",108.0,-484.92944043,0.009361364291088137,0.0,
21580,As8Ca4F52H4,mp-778977,CaAs2HF13,"['Ca', 'As', 'H', 'F']",68.0,-317.75715153,0.002620125564108733,0.0,
29821,As6Ca2,mp-1900,CaAs3,"['Ca', 'As']",8.0,-36.43228051,0.0011946000988771743,0.0,
2430,As12Ca4F60,mp-1227150,CaAs3F15,"['Ca', 'As', 'F']",76.0,-360.43432015,0.0005839447522610897,0.0,
29220,As2Au2Ca2,mp-3927,CaAsAu,"['Ca', 'As', 'Au']",6.0,-25.09740659,0.001566217340495335,-8.881784197001252e-16,
31368,As16Ca16Pd16,mp-28763,CaAsPd,"['Ca', 'As', 'Pd']",48.0,-235.10528146,0.009937691446126884,0.0,
18865,As6Ca6Pt6,mp-28340,CaAsPt,"['Ca', 'As', 'Pt']",18.0,-94.76322918,0.00043753514567068663,0.0,
14154,Au2Ca2,mp-12723,CaAu,"['Ca', 'Au']",4.0,-13.80137568,0.000689195386962993,0.0,
1525,Au4Ca2,mp-443,CaAu2,"['Ca', 'Au']",6.0,-21.37494315,-3.1086244689504383e-15,0.0,
11915,Au5Ca1,mp-568920,CaAu5,"['Ca', 'Au']",6.0,-20.8185393,0.004181056811523476,0.0,
259,B16Ca8F64,mp-12146,CaB2F8,"['Ca', 'B', 'F']",88.0,-525.5527196,4.864090910228214e-05,1.1546319456101628e-14,
2202,B2Ca1Rh3,mp-28705,CaB2Rh3,"['Ca', 'B', 'Rh']",6.0,-41.1368212,0.0,0.0,
4359,B12Ca4H12O28,mp-722262,CaB3H3O7,"['Ca', 'B', 'H', 'O']",56.0,-387.95082008,0.00034619991768991554,0.0,
11828,B12Ca4H4O24,mp-1194867,CaB3HO6,"['Ca', 'B', 'H', 'O']",44.0,-328.31765944,0.00023522912458862066,0.0,
12024,B16Ca4,mp-1213975,CaB4,"['Ca', 'B']",20.0,-122.71060494,0.0005674702851559132,0.0,
174,B32Ca8O56,mp-556214,CaB4O7,"['Ca', 'B', 'O']",96.0,-758.83569885,2.140174961517971e-05,-5.861977570020827e-14,
19541,B6Ca1,mp-865,CaB6,"['Ca', 'B']",7.0,-44.93660105,5.7577050781354444e-05,0.0,
9187,B16Ca2H8O30,mp-23701,CaB8H4O15,"['Ca', 'B', 'H', 'O']",56.0,-411.61400179,1.1939645648162411e-05,-1.3322676295501878e-14,
13979,B4Ca4H4O12,mp-1192226,CaBHO3,"['Ca', 'B', 'H', 'O']",24.0,-165.66321244,0.0006109400000005039,0.0,
7319,B1Ca1Pd3,mp-1206909,CaBPd3,"['Ca', 'B', 'Pd']",5.0,-27.02609129,0.07206964755681611,0.0,
15096,Be26Ca2,mp-1845,CaBe13,"['Ca', 'Be']",28.0,-103.97927193,0.0008073178948104776,0.0,
9926,Be8Ca4O32P8,mp-6772,CaBe2(PO4)2,"['Ca', 'Be', 'P', 'O']",52.0,-379.80795272,0.0,0.0,
1879,Bi4Ca2,mp-1077466,CaBi2,"['Ca', 'Bi']",6.0,-22.77221545,0.0,0.0,
5745,Bi16Ca8O40,mp-1042415,CaBi2O5,"['Ca', 'Bi', 'O']",64.0,-375.27365027,0.007445202486978886,0.0,
4306,Bi6Ca1O20P4,mp-556615,CaBi6(PO5)4,"['Ca', 'Bi', 'P', 'O']",31.0,-206.62691141,0.00013885194556451097,0.0,
1639,Au1Bi1Ca1,mp-568398,CaBiAu,"['Ca', 'Bi', 'Au']",3.0,-11.34654325,0.0010907062174472237,0.0,
31015,Au4Bi1Ca1,mp-1213974,CaBiAu4,"['Ca', 'Bi', 'Au']",6.0,-21.49311697,7.212967122693925e-06,-1.7763568394002505e-15,
20141,Bi2Ca2Cl2O4,mp-553025,CaBiClO2,"['Ca', 'Bi', 'Cl', 'O']",10.0,-55.62875163,2.212093554732064e-05,0.0,
16886,Bi1Ca1I1O2,mp-1227238,CaBiIO2,"['Ca', 'Bi', 'I', 'O']",5.0,-26.40715521,0.0149854832685552,0.0,
3506,Bi4Ca4O12,mp-755893,CaBiO3,"['Ca', 'Bi', 'O']",20.0,-119.99852345,0.01561506895507847,0.0,
17163,Bi4Ca4Pd4,mp-1213983,CaBiPd,"['Ca', 'Bi', 'Pd']",12.0,-53.33453117,0.00030316065836544226,0.0,
27340,Br4Ca2,mp-22888,CaBr2,"['Ca', 'Br']",6.0,-22.83739574,0.019915356402994355,0.0,
7362,C12Ca6N12O12,mp-1200920,CaC2(NO)2,"['Ca', 'C', 'N', 'O']",42.0,-334.10276421,0.00044268970796146334,0.0,
31086,C1Ca1N2,mp-4124,CaCN2,"['Ca', 'C', 'N']",4.0,-31.4734856,3.4550415044520832e-06,0.0,
25023,C2Ca2O6,mp-3953,CaCO3,"['Ca', 'C', 'O']",10.0,-74.91437566,1.6913980468657996e-05,0.0,
15547,Ca1Cd1,mp-1073,CaCd,"['Ca', 'Cd']",2.0,-3.63669309,0.0029518158245849246,0.0,
22033,C2Ca1Cd1O6,mp-1227329,CaCd(CO3)2,"['Ca', 'Cd', 'C', 'O']",10.0,-69.20869706,0.0005545615781246127,0.0,
23302,Ca2Cd4,mp-1444,CaCd2,"['Ca', 'Cd']",6.0,-9.68588048,0.005436927446289097,0.0,
20677,Ca4Cd8Pd4,mp-1105752,CaCd2Pd,"['Ca', 'Cd', 'Pd']",16.0,-44.21668653,0.0,0.0,
31046,Ca1Cd3O4,mp-760403,CaCd3O4,"['Ca', 'Cd', 'O']",8.0,-36.7213851,0.003182297871399342,0.0,
10674,Ca12Cd72,mp-1229298,CaCd6,"['Ca', 'Cd']",84.0,-106.3035519,0.0,0.0,
27665,Au4Ca4Cd4,mp-569628,CaCdAu,"['Ca', 'Cd', 'Au']",12.0,-32.26118591,0.004197549017469715,0.0,
1003,Au2Ca1Cd1,mp-866010,CaCdAu2,"['Ca', 'Cd', 'Au']",4.0,-11.74206532,0.012914391576398287,0.0,
19755,Ca1Cd1Hg2,mp-866104,CaCdHg2,"['Ca', 'Cd', 'Hg']",4.0,-5.02152542,0.0033555745061317754,0.0,
14454,Ca1Cd1O2,mp-753287,CaCdO2,"['Ca', 'Cd', 'O']",4.0,-20.86480387,0.002223966887207496,0.0,
25821,Ca2Cd2O14P4,mp-1213987,CaCdP2O7,"['Ca', 'Cd', 'P', 'O']",22.0,-148.47316545,0.0013395698330960215,0.0,
17398,Ca3Cd3Pb3,mp-623089,CaCdPb,"['Ca', 'Cd', 'Pb']",9.0,-23.40274179,0.0035748084183757634,0.0,
28673,Ca4Cd4Pd4,mp-1103172,CaCdPd,"['Ca', 'Cd', 'Pd']",12.0,-39.64112769,0.006717964648980335,0.0,
17396,Ca4Cd4Pt4,mp-1103046,CaCdPt,"['Ca', 'Cd', 'Pt']",12.0,-44.63250227,0.001091424602864155,0.0,
24588,Ca3Cd3Sn3,mp-568695,CaCdSn,"['Ca', 'Cd', 'Sn']",9.0,-25.30893512,0.009252235371365103,0.0,
24994,Ca2Ce8O26Si6,mp-1229253,CaCe4Si3O13,"['Ca', 'Ce', 'Si', 'O']",42.0,-346.6738068,0.11184111896685067,0.0,
18270,Ca1Ce1Hg2,mp-866040,CaCeHg2,"['Ca', 'Ce', 'Hg']",4.0,-10.3273723,0.001495900906371972,0.0,
2765,Ca1Ce1In2,mp-1183677,CaCeIn2,"['Ca', 'Ce', 'In']",4.0,-15.05526301,0.012601145273742898,0.0,
10776,Ca1Ce1N2,mp-1227227,CaCeN2,"['Ca', 'Ce', 'N']",4.0,-29.5070374,0.08820077878417898,0.0,
14942,Ca1Ce1O8V2,mp-1227255,CaCeV2O8,"['Ca', 'Ce', 'V', 'O']",12.0,-93.14184896,0.0,0.0,
30782,Ca2Cl4,mp-22904,CaCl2,"['Ca', 'Cl']",6.0,-25.77033406,0.00013661967936240416,0.0,
25173,Ca2Co2Ge4O12,mp-1043203,CaCo(GeO3)2,"['Ca', 'Co', 'Ge', 'O']",20.0,-130.25075823,-1.2434497875801753e-14,-1.2434497875801753e-14,
4133,Ca2Co2O24P8,mp-1045787,CaCo(PO3)4,"['Ca', 'Co', 'P', 'O']",36.0,-257.36823717,0.0005822520052083391,0.0,
14354,Ca4Cl8Co8O32Te12,mp-562004,CaCo2Te3(ClO4)2,"['Ca', 'Co', 'Te', 'Cl', 'O']",64.0,-347.64146808,0.0,-5.329070518200751e-15,
4222,Ca1Co1F6,mp-1398496,CaCoF6,"['Ca', 'Co', 'F']",8.0,-38.09114222,0.025578295650629634,0.0,
22549,Ca4Co4Ge4O16,mp-1213999,CaCoGeO4,"['Ca', 'Co', 'Ge', 'O']",28.0,-182.30093539,0.0,0.0,
18251,Ca2Co2Si2,mp-1018658,CaCoSi,"['Ca', 'Co', 'Si']",6.0,-32.27309774,0.0025123049707040934,0.0,
30563,Ca1Cr2F12,mp-1932798,CaCr2F12,"['Ca', 'Cr', 'F']",15.0,-75.5256208,0.001201276907542237,-9.769962616701378e-15,
7151,Ca4Cr8O16,mp-540582,CaCr2O4,"['Ca', 'Cr', 'O']",28.0,-213.05686588,-3.552713678800501e-15,-3.552713678800501e-15,
4335,Ca4Cr8O36P8,mp-1040889,CaCr2P2O9,"['Ca', 'Cr', 'P', 'O']",56.0,-423.63956243,0.0004293094600846814,0.0,
6713,Ca2Cr2F8,mp-1388114,CaCrF4,"['Ca', 'Cr', 'F']",12.0,-73.3563495,0.0005293466796878477,0.0,
21689,Ca2Cr2F10,mp-556748,CaCrF5,"['Ca', 'Cr', 'F']",14.0,-83.70469446,7.018592774077348e-05,6.217248937900877e-15,
25533,Ca1Cr1F6,mp-557519,CaCrF6,"['Ca', 'Cr', 'F']",8.0,-44.69721976,0.0007648464367671082,0.0,
29899,Ca2Cr2O8,mp-19215,CaCrO4,"['Ca', 'Cr', 'O']",12.0,-82.59119044,0.0,0.0,
27764,Ca4Cr4O28P8,mp-19134,CaCrP2O7,"['Ca', 'Cr', 'P', 'O']",44.0,-327.61571345,0.0,0.0,
31095,Ca20Cu20,mp-585949,CaCu,"['Ca', 'Cu']",40.0,-127.844049,0.003430568594360306,0.0,
30388,Ca1Cu2F8,mp-1404968,CaCu2F8,"['Ca', 'Cu', 'F']",11.0,-47.84399758,0.003787604033237635,0.0,
19388,Ca2Cu6O8,mp-1147653,CaCu3O4,"['Ca', 'Cu', 'O']",16.0,-87.66561056,0.0002629187963867352,0.0,
29958,Ca1Cu5,mp-1882,CaCu5,"['Ca', 'Cu']",6.0,-23.23371892,0.0013748724845377147,0.0,
29773,As2Ca2Cu2,mp-4120,CaCuAs,"['Ca', 'Cu', 'As']",6.0,-26.39778197,0.00022846428955070053,-8.881784197001252e-16,
10985,Ca2Cu2F8,mp-12266,CaCuF4,"['Ca', 'Cu', 'F']",12.0,-60.30946541,0.0,9.769962616701378e-15,
19708,Ca2Cu2F10,mp-1786455,CaCuF5,"['Ca', 'Cu', 'F']",14.0,-65.46585643,0.0015561926743856702,0.0,
9842,Ca2Cu2P2,mp-8432,CaCuP,"['Ca', 'Cu', 'P']",6.0,-28.19674651,0.0002476901261347919,-4.440892098500626e-15,
5507,Ca4Cu4O28P8,mp-14694,CaCuP2O7,"['Ca', 'Cu', 'P', 'O']",44.0,-302.85617301,3.098561255754362e-05,-1.3322676295501878e-14,
9618,Ca2Cu2Sb2,mp-5910,CaCuSb,"['Ca', 'Cu', 'Sb']",6.0,-24.47454475,0.002298129435220453,0.0,
20651,Ca6Cu6Sn6,mp-570879,CaCuSn,"['Ca', 'Cu', 'Sn']",18.0,-68.67134857,0.01229392167534682,0.0,
9310,Ca1Dy1Hg2,mp-866228,CaDyHg2,"['Ca', 'Dy', 'Hg']",4.0,-9.34550585,8.881784197001252e-16,0.0,
137,Ca1Dy1Rh2,mp-866216,CaDyRh2,"['Ca', 'Dy', 'Rh']",4.0,-23.81869524,0.020278887753906183,0.0,
10048,Ca1Eu1In2,mp-865553,CaEuIn2,"['Ca', 'Eu', 'In']",4.0,-19.64220706,0.01759698149047839,0.0,
15483,Ca1Eu1Tl2,mp-1183609,CaEuTl2,"['Ca', 'Eu', 'Tl']",4.0,-18.7904912,0.012217020861815975,0.0,
28228,Ca1Eu1Zn2,mp-1183574,CaEuZn2,"['Ca', 'Eu', 'Zn']",4.0,-15.83512021,0.015646395845184458,0.0,
9182,Ca1F2,mp-2741,CaF2,"['Ca', 'F']",3.0,-17.5774011,0.0,0.0,
2225,Ca2Fe2O24P8,mp-1045812,CaFe(PO3)4,"['Ca', 'Fe', 'P', 'O']",36.0,-260.38321898,0.00047529471791030176,0.0,
21639,Ca4Fe8H4O36P8,mp-1200109,CaFe2P2HO9,"['Ca', 'Fe', 'P', 'H', 'O']",60.0,-416.95215377,0.0,-5.417888360170764e-14,
7980,Ca4Fe8O36P8,mp-1040941,CaFe2P2O9,"['Ca', 'Fe', 'P', 'O']",56.0,-398.96627591,-1.4210854715202004e-14,0.0,
12413,Ca1Fe2O24P6Sb2,mp-698695,CaFe2Sb2(PO4)6,"['Ca', 'Fe', 'Sb', 'P', 'O']",35.0,-244.76422331,0.0004690382410705851,0.0,
4215,Ca2Fe6O28P8,mp-1040883,CaFe3(P2O7)2,"['Ca', 'Fe', 'P', 'O']",44.0,-317.79493084,0.0005956547372161225,0.0,
25465,B2Ca2Fe2H4O20P4,mp-1199046,CaFeBP2(HO5)2,"['Ca', 'Fe', 'B', 'P', 'H', 'O']",34.0,-235.83874335,0.00023653089384279014,-1.3322676295501878e-14,
4370,Ca2Cl2Fe2O4,mp-549711,CaFeClO2,"['Ca', 'Fe', 'Cl', 'O']",10.0,-59.69234057,9.262146679667183e-05,0.0,
13401,Ca2F10Fe2,mp-1392416,CaFeF5,"['Ca', 'Fe', 'F']",14.0,-77.55396774,0.0006108073549153659,5.329070518200751e-15,
21424,Ca4Fe4O12,mp-19115,CaFeO3,"['Ca', 'Fe', 'O']",20.0,-128.58039703,0.0,0.0,
15468,Ca4Fe4O28P8,mp-1343599,CaFeP2O7,"['Ca', 'Fe', 'P', 'O']",44.0,-318.66160681,5.464591974568833e-05,0.0,
21640,Ca2Fe2O24P6Sn2,mp-743601,CaFeSn(PO4)3,"['Ca', 'Fe', 'Sn', 'P', 'O']",36.0,-254.65872444,0.0006272358789054522,-2.7533531010703882e-14,
5330,Ca2Ga2,mp-6914,CaGa,"['Ca', 'Ga']",4.0,-11.9711742,0.0006632905151366941,0.0,
26514,Ca2Ga4,mp-11284,CaGa2,"['Ca', 'Ga']",6.0,-19.23769676,0.0002411019303387718,0.0,
30239,Ca2Ga4Ni2,mp-1080561,CaGa2Ni,"['Ca', 'Ga', 'Ni']",8.0,-31.72804507,0.00047605188842769763,0.0,
28561,Ca2Co4Ga6,mp-1101789,CaGa3Co2,"['Ca', 'Ga', 'Co']",12.0,-55.16075702,0.0014189121720376008,0.0,
19595,Ca2Ga6Ni4,mp-11431,CaGa3Ni2,"['Ca', 'Ga', 'Ni']",12.0,-51.08260508,0.0015031731632486611,0.0,
5973,Ca1Ga3Pt1,mp-1227072,CaGa3Pt,"['Ca', 'Ga', 'Pt']",5.0,-20.434655,0.012864818328857552,3.552713678800501e-15,
6562,Ca1Ga4,mp-1976,CaGa4,"['Ca', 'Ga']",5.0,-15.94570508,0.0017943096225589983,0.0,
29693,Ca2Ga8O14,mp-17914,CaGa4O7,"['Ca', 'Ga', 'O']",24.0,-148.03601012,5.590296225044256e-06,-1.1546319456101628e-14,
551,Au4Ca4Ga4,mp-11811,CaGaAu,"['Ca', 'Ga', 'Au']",12.0,-41.77195548,4.466458984353494e-05,0.0,
11218,Au24Ca8Ga8,mp-567485,CaGaAu3,"['Ca', 'Ga', 'Au']",40.0,-141.99189866,3.4305350585572825e-05,0.0,
18595,B4Ca4Ga4O16,mp-557855,CaGaBO4,"['Ca', 'Ga', 'B', 'O']",28.0,-196.49024743,2.6938535156340038e-05,0.0,
1614,B4Bi2Ca2Ga2O14,mp-1227107,CaGaBiB2O7,"['Ca', 'Ga', 'Bi', 'B', 'O']",24.0,-167.90480978,0.0005118931184906472,0.0,
15703,Ca4Ga4Ge4,mp-541310,CaGaGe,"['Ca', 'Ga', 'Ge']",12.0,-44.92394287,0.0,0.0,
28100,Ca2Ga2H10,mp-1213976,CaGaH5,"['Ca', 'Ga', 'H']",14.0,-46.4678931,1.0591559710171339e-05,0.0,
14068,Ca2Ga2N2,mp-7263,CaGaN,"['Ca', 'Ga', 'N']",6.0,-31.078769,0.001996810445149322,0.0,
8265,Ca4Ga4Pt4,mp-31152,CaGaPt,"['Ca', 'Ga', 'Pt']",12.0,-55.45215796,0.00045251965006531947,0.0,
22898,Ca4Ga16Gd8O48Zr4,mp-686296,CaGd2Zr(GaO3)4,"['Ca', 'Gd', 'Zr', 'Ga', 'O']",80.0,-653.8523085,0.003517908886719212,0.0,
26691,Ca1Gd1Hg2,mp-867315,CaGdHg2,"['Ca', 'Gd', 'Hg']",4.0,-18.83683673,0.003488323450927311,0.0,
26371,Ca4Ge8Pt4,mp-1105802,CaGe2Pt,"['Ca', 'Ge', 'Pt']",16.0,-81.03745858,0.0,0.0,
27754,Ca4Ge4Pt4,mp-31153,CaGePt,"['Ca', 'Ge', 'Pt']",12.0,-61.68229009,0.0,0.0,
30626,Ca4H8,mp-23713,CaH2,"['Ca', 'H']",12.0,-41.820434,0.0,0.0,
19230,Ca2F8H4,mp-1104135,CaH2F4,"['Ca', 'H', 'F']",14.0,-69.46415856,0.0004036479534041959,0.0,
17986,Ca16H48N16O80,mp-722900,CaH3NO5,"['Ca', 'H', 'N', 'O']",160.0,-929.28337012,0.001608514386719051,0.0,
22439,Ca1H3Pd1,mp-1207169,CaH3Pd,"['Ca', 'H', 'Pd']",5.0,-19.93811834,0.016561247494791598,0.0,
20639,Ca8Cl8H32N8O40,mp-720586,CaH4NClO5,"['Ca', 'H', 'N', 'Cl', 'O']",96.0,-521.66548735,0.0024472092041003535,0.0,
7069,Ca1H6O16S4,mp-1193655,CaH6(SO4)4,"['Ca', 'H', 'S', 'O']",27.0,-155.84142219,0.0005079726359955572,0.0,
21200,Br4Ca2H16O24,mp-1182712,CaH8(BrO6)2,"['Ca', 'H', 'Br', 'O']",46.0,-215.77076906,0.05498440315705633,0.0,
3925,Ca2Cl4H16O24,mp-1204240,CaH8(ClO6)2,"['Ca', 'H', 'Cl', 'O']",46.0,-222.32027179,0.0013471188654898825,0.0,
10696,Br2Ca2H2,mp-24422,CaHBr,"['Ca', 'H', 'Br']",6.0,-22.08295941,0.0027916237036125224,0.0,
16914,Ca2Cl2H2,mp-23859,CaHCl,"['Ca', 'H', 'Cl']",6.0,-23.45137037,0.0004168076367161433,-3.552713678800501e-15,
22519,Ca2Cl2H2O2,mp-642725,CaHClO,"['Ca', 'H', 'Cl', 'O']",8.0,-41.42828438,0.0006256730505374009,0.0,
3187,Ca2H2I2,mp-24204,CaHI,"['Ca', 'H', 'I']",6.0,-20.53321323,9.80040454101605e-05,0.0,
129,Ca1H1N1,mp-34932,CaHN,"['Ca', 'H', 'N']",3.0,-15.94127084,0.04262671523925832,-4.440892098500626e-15,
30219,Ca6Hf6O72S18,mp-2713912,CaHf(SO4)3,"['Ca', 'Hf', 'S', 'O']",102.0,-710.31710598,0.009845425249693562,-2.6645352591003757e-14,
8801,Ca1Hf1N2,mp-1029359,CaHfN2,"['Ca', 'Hf', 'N']",4.0,-35.01449586,0.0007353108178715928,0.0,
26645,Ca4Hf4O12,mp-754853,CaHfO3,"['Ca', 'Hf', 'O']",20.0,-175.40144896,0.00010288769335886627,0.0,
24713,Ca2F14Hf2Tl2,mp-1213969,CaHfTlF7,"['Ca', 'Hf', 'Tl', 'F']",20.0,-125.19508168,5.209275781226097e-05,0.0,
31300,Ca1Hg1,mp-11286,CaHg,"['Ca', 'Hg']",2.0,-3.41352932,0.005292930484619207,0.0,
25763,Ca2Hg6,mp-863648,CaHg3,"['Ca', 'Hg']",8.0,-9.01359242,0.0,0.0,
25680,Ca1Hg1O2,mp-7041,CaHgO2,"['Ca', 'Hg', 'O']",4.0,-19.20925851,0.0,0.0,
11695,Ca2Fe4Ho2O12,mp-1041214,CaHo(FeO3)2,"['Ca', 'Ho', 'Fe', 'O']",20.0,-140.20908352,0.0017783510265996227,0.0,
7891,Ca2Ho2Mo4O12,mp-1041241,CaHo(MoO3)2,"['Ca', 'Ho', 'Mo', 'O']",20.0,-150.37511044,0.010726088516598509,-1.5987211554602254e-14,
19903,Ca2Ge8Ho4O24,mp-1227515,CaHo2(GeO3)4,"['Ca', 'Ho', 'Ge', 'O']",38.0,-269.32504135,0.0,0.0,
24282,Ca1Hg2Ho1,mp-1183554,CaHoHg2,"['Ca', 'Ho', 'Hg']",4.0,-9.30124325,0.0,0.0,
2738,Ca2Ho2O12V4,mp-1041222,CaHoV2O6,"['Ca', 'Ho', 'V', 'O']",20.0,-156.29908858,0.00026507031122768865,0.0,
9561,Ca1I2,mp-30031,CaI2,"['Ca', 'I']",3.0,-9.97885889,0.0,0.0,
24308,Ca1In1,mp-20263,CaIn,"['Ca', 'In']",2.0,-5.6964017,0.002055354605102533,0.0,
1216,Ca2In4,mp-21068,CaIn2,"['Ca', 'In']",6.0,-17.566481,7.178289794929071e-05,0.0,
30111,Au2Ca2In4,mp-22602,CaIn2Au,"['Ca', 'In', 'Au']",8.0,-25.74676484,0.00013760460998524238,0.0,
27583,Ca8In16Ir8,mp-20846,CaIn2Ir,"['Ca', 'In', 'Ir']",32.0,-144.84325851,0.0021225024645996626,0.0,
30995,Ca2In4Ni2,mp-1080611,CaIn2Ni,"['Ca', 'In', 'Ni']",8.0,-29.47869917,0.0006043361566163696,0.0,