,Composition,MaterialId,Reduced Formula,Elements,NSites,Corrected Energy,Decomposition Energy Per Atom All,Decomposition Energy Per Atom MP,Directory
6824,Cu2Hg1Si1Te4,mp-1080131,Cu2SiHgTe4,"['Cu', 'Si', 'Hg', 'Te']",8.0,-27.38916048,0.0013691216662325978,0.0,
4307,Cu4Se6Si2,mp-15896,Cu2SiSe3,"['Cu', 'Si', 'Se']",12.0,-51.5972112,0.022052521447245788,0.0,
13880,Cu4Si2Te6,mp-675120,Cu2SiTe3,"['Cu', 'Si', 'Te']",12.0,-46.98993924,0.019165611755404655,-1.7763568394002505e-15,
11475,Cu2Hg1S4Sn1,mp-1025467,Cu2SnHgS4,"['Cu', 'Sn', 'Hg', 'S']",8.0,-31.36594003,0.002835115473758698,0.0,
23916,Cu2Hg1Se4Sn1,mp-16566,Cu2SnHgSe4,"['Cu', 'Sn', 'Hg', 'Se']",8.0,-28.67062807,0.0006432548608397148,0.0,
22573,Cu4S6Sn2,mp-10519,Cu2SnS3,"['Cu', 'Sn', 'S']",12.0,-53.15814858,0.018996198435195844,-8.881784197001252e-16,
7436,Cu2Se4W1,mp-1025340,Cu2WSe4,"['Cu', 'W', 'Se']",7.0,-37.46700254,0.000583765386440227,0.0,
3188,As2Cu3O8,mp-21209,Cu3(AsO4)2,"['Cu', 'As', 'O']",13.0,-72.72602716,0.0020390766346158884,0.0,
15384,C4Cu6O16,mp-1192764,Cu3(CO4)2,"['Cu', 'C', 'O']",26.0,-163.89639933,0.002572785309495451,0.0,
11501,Cu3O8P2,mp-4093,Cu3(PO4)2,"['Cu', 'P', 'O']",13.0,-81.48515683,0.0005374685306698268,0.0,
18386,Ag4Bi14Cu6Pb6S32,mp-1196623,Cu3Ag2Bi7Pb3S16,"['Cu', 'Ag', 'Bi', 'Pb', 'S']",62.0,-265.68139549,0.0009880334589214002,0.0,
3434,As1Cu3F12,mp-1147660,Cu3AsF12,"['Cu', 'As', 'F']",16.0,-66.07363289,0.03219818918319728,0.0,
25760,As2Cu6S8,mp-3345,Cu3AsS4,"['Cu', 'As', 'S']",16.0,-70.12697511,0.027443513984731105,0.0,
10362,As1Cu3Se4,mp-675626,Cu3AsSe4,"['Cu', 'As', 'Se']",8.0,-32.12207265,0.01590185127304089,0.0,
27546,Au1Cu3,mp-2258,Cu3Au,"['Cu', 'Au']",4.0,-15.71775902,0.0007531923876951119,0.0,
12304,B5Cu3Pt9,mp-1105186,Cu3B5Pt9,"['Cu', 'B', 'Pt']",17.0,-103.91032906,5.329070518200751e-15,5.329070518200751e-15,
12748,Bi2Cl2Cu6O16Se4,mp-505104,Cu3BiSe2ClO8,"['Cu', 'Bi', 'Se', 'Cl', 'O']",30.0,-153.36952322,1.678784895897678e-05,-1.9539925233402755e-14,
18236,Bi2Cu6I2O16Se4,mp-669425,Cu3BiSe2IO8,"['Cu', 'Bi', 'Se', 'I', 'O']",30.0,-151.39004583,0.0011379887591891347,0.0,
17278,Cu6F8H4O4,mp-643793,Cu3H2(OF2)2,"['Cu', 'H', 'O', 'F']",22.0,-100.49766443,-8.881784197001252e-16,0.0,
17310,Cu6Hg4O32Te12,mp-1194777,Cu3Hg2(Te3O8)2,"['Cu', 'Hg', 'Te', 'O']",54.0,-268.19325588,0.0,0.0,
18415,Cl4Cu6H12Ni2O12,mp-557210,Cu3NiH6(ClO3)2,"['Cu', 'Ni', 'H', 'Cl', 'O']",36.0,-168.96498023,0.0,0.0,
3928,Cu12I8P60,mp-679930,Cu3P15I2,"['Cu', 'P', 'I']",80.0,-393.10670964,0.004361634260741987,0.0,
13324,Cu18I18P24S24,mp-565597,Cu3P4S4I3,"['Cu', 'P', 'S', 'I']",84.0,-348.78023885,7.830714750767243e-05,0.0,
24410,Br36Cu36P48Se48,mp-680446,Cu3P4Se4Br3,"['Cu', 'P', 'Se', 'Br']",168.0,-670.28644955,0.003846991610862993,0.0,
4563,Cl12Cu12P32S24,mp-559558,Cu3P8(S2Cl)3,"['Cu', 'P', 'S', 'Cl']",80.0,-368.18180174,0.0,0.0,
30792,Br12Cu12P32Se24,mp-1200788,Cu3P8(Se2Br)3,"['Cu', 'P', 'Se', 'Br']",80.0,-340.53511961,0.010778676078610161,3.552713678800501e-15,
486,Cu6P2S8,mp-3934,Cu3PS4,"['Cu', 'P', 'S']",16.0,-72.81255806,6.659601196279397e-05,0.0,
8321,Cu6P2Se8,mp-5756,Cu3PSe4,"['Cu', 'P', 'Se']",16.0,-65.62540829,5.131369262745267e-05,0.0,
21094,Cu3Pd1,mp-580357,Cu3Pd,"['Cu', 'Pd']",4.0,-17.89721271,0.00013835082031210533,0.0,
17641,Cu3Pt1,mp-12086,Cu3Pt,"['Cu', 'Pt']",4.0,-18.92445414,0.0006083430517573873,0.0,
1075,Cu3F12Sb1,mp-1232290,Cu3SbF12,"['Cu', 'Sb', 'F']",16.0,-66.64084421,0.03812168822616613,0.0,
26731,Cu3S4Sb1,mp-5702,Cu3SbS4,"['Cu', 'Sb', 'S']",8.0,-34.76603771,0.014106231883901366,0.0,
5267,Cu3Sb1Se4,mp-9814,Cu3SbSe4,"['Cu', 'Sb', 'Se']",8.0,-31.86395822,0.006620287103118905,0.0,
20659,Cu6Se4,mp-20683,Cu3Se2,"['Cu', 'Se']",10.0,-39.91059459,0.0005970839687501339,0.0,
541,Ag2As6Cu8O24,mp-14455,Cu4Ag(AsO4)3,"['Cu', 'Ag', 'As', 'O']",40.0,-219.59062777,0.0,0.0,
10238,As4Cl4Cu16O24,mp-1213317,Cu4AsClO6,"['Cu', 'As', 'Cl', 'O']",48.0,-246.09769184,0.0006017644327824812,0.0,
4639,Bi3Cu4O4Pb1Se4,mp-1225836,Cu4Bi3Pb(SeO)4,"['Cu', 'Bi', 'Pb', 'Se', 'O']",16.0,-76.41072514,0.0004947864770512567,0.0,
8117,Cu8O10Pt2,mp-753552,Cu4PtO5,"['Cu', 'Pt', 'O']",20.0,-105.6573973,0.0027460026147467786,8.881784197001252e-16,
27751,Cu64O160Se48,mp-1204253,Cu4Se3O10,"['Cu', 'Se', 'O']",272.0,-1406.4571059,0.0,0.0,
23521,Cu8P16Si2,mp-28995,Cu4SiP8,"['Cu', 'Si', 'P']",26.0,-133.57853599,0.0,0.0,
1040,Cu4P10Sn1,mp-34126,Cu4SnP10,"['Cu', 'Sn', 'P']",15.0,-76.38466899,0.00153486437109418,0.0,
10790,Cl4Cu10O16Se4,mp-554163,Cu5Se2(ClO4)2,"['Cu', 'Se', 'Cl', 'O']",34.0,-163.28186013,2.6427558593056233e-05,0.0,
19130,Cl4Cu10O24Se8,mp-1201155,Cu5Se4(ClO6)2,"['Cu', 'Se', 'Cl', 'O']",46.0,-225.71857074,0.0,0.0,
8481,Cl10Cu10O8Se2,mp-1225822,Cu5SeCl5O4,"['Cu', 'Se', 'Cl', 'O']",30.0,-123.50828815,0.003483038229166624,0.0,
4074,Cu10S14Si4,mp-510418,Cu5Si2S7,"['Cu', 'Si', 'S']",28.0,-132.70847801,0.004320641037378614,0.0,
9913,Cu5Se7Sn2,mp-1103757,Cu5Sn2Se7,"['Cu', 'Sn', 'Se']",14.0,-56.93836235,0.0026676761413568784,0.0,
18857,Cu5Sn2Te7,mp-1103821,Cu5Sn2Te7,"['Cu', 'Sn', 'Te']",14.0,-52.53626923,0.006972479948555765,0.0,
3093,As8Cu12S18,mp-28717,Cu6As4S9,"['Cu', 'As', 'S']",38.0,-168.50383408,0.026854044221490625,0.0,
24792,Cu12Ge2S16W2,mp-557225,Cu6GeWS8,"['Cu', 'Ge', 'W', 'S']",32.0,-163.02711311,0.0,0.0,
6103,Cu6O8Pb1,mp-559633,Cu6PbO8,"['Cu', 'Pb', 'O']",15.0,-77.95690284,0.0,0.0,
1265,Cu28S16,mp-624299,Cu7S4,"['Cu', 'S']",44.0,-187.56281609,0.007768087118585676,0.0,
27655,Cu9H2O20P4,mp-740764,Cu9P4(HO10)2,"['Cu', 'P', 'H', 'O']",35.0,-209.05901764,2.220446049250313e-14,2.220446049250313e-14,
135,Ag4Cu2N8O24,mp-1202008,CuAg2(NO3)4,"['Cu', 'Ag', 'N', 'O']",38.0,-216.89749617,0.0,0.0,
18101,Ag4Cu2O24P8,mp-1213222,CuAg2(PO3)4,"['Cu', 'Ag', 'P', 'O']",38.0,-244.65639948,0.0007527544839636136,0.0,
22365,Ag4Cu2O14P4,mp-1213198,CuAg2P2O7,"['Cu', 'Ag', 'P', 'O']",24.0,-145.02930785,0.0035572260172527237,0.0,
2646,Ag1Cu1O2,mp-996975,CuAgO2,"['Cu', 'Ag', 'O']",4.0,-18.36126983,9.942707519527971e-06,0.0,
3612,As48Br4Cu4P16S48,mp-1197719,CuAs12P4S12Br,"['Cu', 'As', 'P', 'S', 'Br']",120.0,-554.28608764,0.0,0.0,
20221,As48Cl4Cu4P16S48,mp-1197298,CuAs12P4S12Cl,"['Cu', 'As', 'P', 'S', 'Cl']",120.0,-556.0986503,0.0,0.0,
14135,As28Br4Cu4P4S28,mp-1198103,CuAs7PS7Br,"['Cu', 'As', 'P', 'S', 'Br']",68.0,-303.40408908,0.003484113269927036,0.0,
20947,As2Cu2F14,mp-31237,CuAsF7,"['Cu', 'As', 'F']",18.0,-77.45453452,0.020553400418837242,0.0,
12829,As2Cu2O8Pb2,mp-557871,CuAsPbO4,"['Cu', 'As', 'Pb', 'O']",14.0,-80.08199836,0.0009856082142967182,-1.7763568394002505e-15,
23039,As2Cu2Pt2S4,mp-1078511,CuAsPtS2,"['Cu', 'As', 'Pt', 'S']",10.0,-49.95681147,0.00038600387890497245,-8.881784197001252e-16,
21511,As4Cu4S4,mp-5305,CuAsS,"['Cu', 'As', 'S']",12.0,-53.63824978,5.910290771460325e-05,0.0,
716,As4Cu4Se4,mp-1102382,CuAsSe,"['Cu', 'As', 'Se']",12.0,-50.56721694,0.0007564577994791932,-8.881784197001252e-16,
4141,Au1Cu1,mp-522,CuAu,"['Cu', 'Au']",2.0,-7.46936366,0.0,0.0,
11699,Au1Cu1F5,mp-28376,CuAuF5,"['Cu', 'Au', 'F']",7.0,-25.4649054,0.0025517321027446194,0.0,
8031,Au1Cu1O2,mp-996978,CuAuO2,"['Cu', 'Au', 'O']",4.0,-18.6870624,0.0,0.0,
17091,Au2Cu2Se8,mp-30151,CuAuSe4,"['Cu', 'Au', 'Se']",12.0,-43.6565496,0.00025676652832018476,0.0,
11404,B4Cu4Ir4,mp-28896,CuBIr,"['Cu', 'B', 'Ir']",12.0,-80.72365272,7.08202897135024e-05,0.0,
14993,B2Cu2S4,mp-12954,CuBS2,"['Cu', 'B', 'S']",8.0,-40.83246708,1.336182617173165e-05,0.0,
10199,Bi4Cu2O24Se8,mp-556303,CuBi2(SeO3)4,"['Cu', 'Bi', 'Se', 'O']",38.0,-205.77178674,0.0002042333531866447,0.0,
7738,Bi4Cu4Pt4S12,mp-865018,CuBiPtS3,"['Cu', 'Bi', 'Pt', 'S']",24.0,-114.68944563,0.0004423110913078787,0.0,
27169,Bi4Cu4S8,mp-22982,CuBiS2,"['Cu', 'Bi', 'S']",16.0,-69.4577341,0.00016791727294940273,0.0,
16727,Bi2Cu2O2Se2,mp-23116,CuBiSeO,"['Cu', 'Bi', 'Se', 'O']",8.0,-38.15511653,0.00011126535400407533,0.0,
9090,Br1Cu1,mp-22913,CuBr,"['Cu', 'Br']",2.0,-6.23737765,0.05359091008834849,0.0,
20931,Br2Cu1,mp-2360071,CuBr2,"['Cu', 'Br']",3.0,-8.3218255,0.0,0.0,
15914,Cl2Cu1,mp-30999,CuCl2,"['Cu', 'Cl']",3.0,-9.31870947,0.0,0.0,
25802,Cu2F4,mp-1229,CuF2,"['Cu', 'F']",6.0,-24.87396778,0.0007905821988769546,0.0,
16329,C12Cl12Cu12H24N24,mp-1213613,CuH2CN2Cl,"['Cu', 'H', 'C', 'N', 'Cl']",84.0,-487.04061572,0.010756438477958596,0.0,
8420,Cu2H4O10S2,mp-24522,CuH2SO5,"['Cu', 'H', 'S', 'O']",18.0,-98.74574364,0.0002548428081592391,0.0,
11311,Cu2H4O10Se2,mp-23955,CuH2SeO5,"['Cu', 'H', 'Se', 'O']",18.0,-91.48292408,0.001005929305282649,0.0,
21842,Cu4F4H4O4,mp-24242,CuHOF,"['Cu', 'H', 'O', 'F']",16.0,-75.51290202,0.0002613041088865842,-8.881784197001252e-16,
1438,Cu4Hg4O24Se8,mp-1194904,CuHg(SeO3)2,"['Cu', 'Hg', 'Se', 'O']",40.0,-190.84503092,0.0008047049052644084,0.0,
8810,Cu6I6,mp-570136,CuI,"['Cu', 'I']",12.0,-35.58219243,0.0161901646073912,0.0,
1662,Cu1I4,mp-33218,CuI4,"['Cu', 'I']",5.0,-9.52630248,0.1784022414822446,0.0,
26329,Cu4I4O16,mp-1192231,CuIO4,"['Cu', 'I', 'O']",24.0,-110.2912676,0.008378203434245002,-4.440892098500626e-15,
27786,Br56Cu8Mo24,mp-571184,CuMo3Br7,"['Cu', 'Mo', 'Br']",88.0,-439.52293823,6.0718910688706274e-05,0.0,
25612,Cl56Cu8Mo24,mp-568397,CuMo3Cl7,"['Cu', 'Mo', 'Cl']",88.0,-471.82047263,6.722219992916223e-05,0.0,
11845,Cu8I56Mo24,mp-29440,CuMo3I7,"['Cu', 'Mo', 'I']",88.0,-409.86313817,1.6180019531297773e-05,0.0,
15037,Cu1F6Mo1,mp-19859,CuMoF6,"['Cu', 'Mo', 'F']",8.0,-39.54437455,0.0,0.0,
31552,Cu1N1Ni3,mp-1017556,CuNi3N,"['Cu', 'Ni', 'N']",5.0,-29.82600858,0.0,0.0,
20149,Cu4Ni4S12Sb4,mp-1191203,CuNiSbS3,"['Cu', 'Ni', 'Sb', 'S']",24.0,-112.91188816,0.005846538139138602,0.0,
31073,Cu2O2,mp-1692,CuO,"['Cu', 'O']",4.0,-20.49151512,0.001126675017090406,0.0,
13334,Cu4P40,mp-606644,CuP10,"['Cu', 'P']",44.0,-234.84254767,0.0,0.0,
21866,Cu4P8,mp-927,CuP2,"['Cu', 'P']",12.0,-61.04940097,0.00018305210123692461,0.0,
2467,Cu4O28P8Pb4,mp-21533,CuP2PbO7,"['Cu', 'P', 'Pb', 'O']",44.0,-292.57952076,2.22055166911872e-05,0.0,
29879,Cu4O44P16,mp-505436,CuP4O11,"['Cu', 'P', 'O']",64.0,-439.64137961,1.3908834228359979e-05,0.0,
27760,Br4Cu4P16S12,mp-1197804,CuP4S3Br,"['Cu', 'P', 'S', 'Br']",36.0,-167.12747316,0.0020466812923176647,0.0,
15863,Cu4I4P16S12,mp-554724,CuP4S3I,"['Cu', 'P', 'S', 'I']",36.0,-165.2620404,0.0003208789171011972,0.0,
29511,Cl4Cu4P16Se12,mp-1196912,CuP4Se3Cl,"['Cu', 'P', 'Se', 'Cl']",36.0,-159.1080765,-7.993605777301127e-15,0.0,
21858,Cu4I4P16Se16,mp-571015,CuP4Se4I,"['Cu', 'P', 'Se', 'I']",40.0,-170.83908658,0.00012671428418009612,0.0,
24347,Cu4F4H16O20P4,mp-721471,CuPH4O5F,"['Cu', 'P', 'H', 'O', 'F']",48.0,-266.7278784,0.001691371020506871,0.0,
6690,Cu6H6O24P6,mp-1201654,CuPHO4,"['Cu', 'P', 'H', 'O']",42.0,-258.59111093,0.0007430979743299204,0.0,
9377,Cu4O16P4,mp-753519,CuPO4,"['Cu', 'P', 'O']",24.0,-151.33277491,0.0008968044905595107,0.0,
21164,Cu4P4S12,mp-1105187,CuPS3,"['Cu', 'P', 'S']",20.0,-92.12799266,0.002566968562503824,4.440892098500626e-15,
26006,Cl8Cu2O24Pb10Se8,mp-1198565,CuPb5Se4(ClO3)4,"['Cu', 'Pb', 'Se', 'Cl', 'O']",52.0,-259.58104022,0.0004566040455973308,-8.881784197001252e-16,
19898,Cu1F6Pb1,mp-1213055,CuPbF6,"['Cu', 'Pb', 'F']",8.0,-33.25511694,0.0001480373767090981,0.0,
18373,Cu1Pd1,mp-1018029,CuPd,"['Cu', 'Pd']",2.0,-9.52573592,0.0,0.0,
16588,Cu1Pd3,mp-1184119,CuPd3,"['Cu', 'Pd']",4.0,-19.90311943,0.0063349343701153416,0.0,
11517,Cu2F12Pd2,mp-1213075,CuPdF6,"['Cu', 'Pd', 'F']",16.0,-62.92934675,0.0027725671691891662,0.0,
13765,Cu2O4Pd2,mp-997012,CuPdO2,"['Cu', 'Pd', 'O']",8.0,-42.67549073,0.0,0.0,
21214,Cu1Pt1,mp-644311,CuPt,"['Cu', 'Pt']",2.0,-10.48893949,0.010414974848632852,0.0,
10582,Cu1Pt7,mp-12608,CuPt7,"['Cu', 'Pt']",8.0,-46.94656449,0.012006351666260073,0.0,
19961,Cu2F12Pt2,mp-28488,CuPtF6,"['Cu', 'Pt', 'F']",16.0,-65.37795537,0.0006892517773442464,-3.552713678800501e-15,
13791,Cu1H8O12Re2,mp-1192782,CuRe2(H2O3)4,"['Cu', 'Re', 'H', 'O']",23.0,-143.56535473,0.0013057067968755831,0.0,
5036,Cu8O32Re8,mp-1181782,CuReO4,"['Cu', 'Re', 'O']",48.0,-353.64784349,0.0010469770556644775,0.0,
20910,Cu1O2Rh1,mp-14116,CuRhO2,"['Cu', 'Rh', 'O']",4.0,-23.83023901,0.00011631866699257642,0.0,
5732,Cu6S6,mp-555599,CuS,"['Cu', 'S']",12.0,-51.73878428,0.0,0.0,
21151,Cu2S4,mp-849086,CuS2,"['Cu', 'S']",6.0,-25.32825824,0.0012921294742831435,0.0,
21869,Cu4N8O32S8,mp-1213485,CuS2(NO4)2,"['Cu', 'S', 'N', 'O']",52.0,-327.48110832,0.0,0.0,
8542,Cu4O16S4,mp-20525,CuSO4,"['Cu', 'S', 'O']",24.0,-137.34036738,0.020474097814128456,0.0,
11969,Cu1F20Sb2Xe4,mp-554497,CuSb2(XeF5)4,"['Cu', 'Sb', 'Xe', 'F']",27.0,-88.70272179,0.0,0.0,
26520,Cu2F32Sb4Xe4,mp-606617,CuSb2(XeF8)2,"['Cu', 'Sb', 'Xe', 'F']",42.0,-155.41206458,0.0,0.0,
4436,Cu4F92Sb12Xe4,mp-1196390,CuSb3XeF23,"['Cu', 'Sb', 'Xe', 'F']",112.0,-432.95786251,0.0,0.0,
6297,Cu1O16S2Sb6,mp-1190199,CuSb6(SO8)2,"['Cu', 'Sb', 'S', 'O']",25.0,-149.13340374,0.001290613095323856,0.0,
30109,Cu4S8Sb4,mp-4468,CuSbS2,"['Cu', 'Sb', 'S']",16.0,-69.8883663,0.01551343398980265,0.0,
23719,Cu4Sb4Se8,mp-20331,CuSbSe2,"['Cu', 'Sb', 'Se']",16.0,-64.12474346,0.01899108978692432,0.0,
17501,Cu6Se6,mp-571486,CuSe,"['Cu', 'Se']",12.0,-47.0511896,0.004436380226644054,0.0,
21160,Cu2Se4,mp-2000,CuSe2,"['Cu', 'Se']",6.0,-22.68152542,0.0,0.0,
7168,Br4Cu4Se8,mp-29567,CuSe2Br,"['Cu', 'Se', 'Br']",16.0,-54.34523613,3.0777916259605576e-05,0.0,
1623,Cl4Cu4Se8,mp-31038,CuSe2Cl,"['Cu', 'Se', 'Cl']",16.0,-56.33769117,0.0,0.0,
28996,Cu2O10Se4,mp-3199,CuSe2O5,"['Cu', 'Se', 'O']",16.0,-82.9306499,0.0008903581176751274,0.0,
15213,Br4Cu4Se12,mp-28741,CuSe3Br,"['Cu', 'Se', 'Br']",20.0,-67.81228002,0.006005821184244642,0.0,
17377,Cu4O16Se4,mp-554040,CuSeO4,"['Cu', 'Se', 'O']",24.0,-122.79237337,0.026504711674805392,0.0,
12991,Cu2Sn2,mp-10598,CuSn,"['Cu', 'Sn']",4.0,-16.31080228,0.0,0.0,
12314,Cu1F6Sn1,mp-4701,CuSnF6,"['Cu', 'Sn', 'F']",8.0,-36.20355547,6.961196533250558e-05,0.0,
4323,Cu1Rh2Sn1,mp-30595,CuSnRh2,"['Cu', 'Sn', 'Rh']",4.0,-24.23106583,1.5715656738635175e-05,0.0,
6580,Cu2Te2,mp-20826,CuTe,"['Cu', 'Te']",4.0,-14.74894129,0.0046136364691165,0.0,
4509,Cu1Te2,mp-1207193,CuTe2,"['Cu', 'Te']",3.0,-10.38817898,0.014378450351562932,0.0,
11235,Br4Cu4Te8,mp-31036,CuTe2Br,"['Cu', 'Te', 'Br']",16.0,-51.34258077,1.687494018565161e-05,0.0,
11005,Cl4Cu4Te8,mp-30971,CuTe2Cl,"['Cu', 'Te', 'Cl']",16.0,-53.25213599,7.754684387206723e-05,0.0,
1038,Cu4I4Te8,mp-31037,CuTe2I,"['Cu', 'Te', 'I']",16.0,-49.56764889,0.00015468630310078169,-4.440892098500626e-16,
16687,Cu4O28Pb4Te8,mp-1203135,CuTe2PbO7,"['Cu', 'Te', 'Pb', 'O']",44.0,-237.95840427,0.015838977384142083,-1.0658141036401503e-14,
11739,Br8Cu8Te8,mp-568778,CuTeBr,"['Cu', 'Te', 'Br']",24.0,-78.07983866,0.0,0.0,
4629,Cu1O4Te1,mp-2224869,CuTeO4,"['Cu', 'Te', 'O']",6.0,-31.71038544,0.0,0.0,
10677,Br56Cu8W24,mp-23370,CuW3Br7,"['Cu', 'W', 'Br']",88.0,-475.90888857,5.835354137140314e-05,0.0,
13639,Cl56Cu8W24,mp-29557,CuW3Cl7,"['Cu', 'W', 'Cl']",88.0,-507.56218895,6.147921697507996e-05,0.0,
4486,Dy3,mp-10658,Dy,['Dy'],3.0,-13.82036052,0.003023989162597829,0.0,
12653,Al8Cu4Dy1,mp-984726,Dy(Al2Cu)4,"['Dy', 'Al', 'Cu']",13.0,-55.00568661,1.509903313490213e-14,0.0,
23811,Al8Dy1Fe4,mp-5091,Dy(Al2Fe)4,"['Dy', 'Al', 'Fe']",13.0,-74.05263226,0.0,0.0,
31255,Al20Dy2Fe4,mp-1213056,Dy(Al5Fe)2,"['Dy', 'Al', 'Fe']",26.0,-127.25650704,0.00010361576171824538,0.0,
8083,Al40Dy4Re8,mp-1213146,Dy(Al5Re)2,"['Dy', 'Al', 'Re']",52.0,-286.2662346,8.881784197001252e-16,9.769962616701378e-15,
15999,Al6C6Dy2,mp-1104803,Dy(AlC)3,"['Dy', 'Al', 'C']",14.0,-91.1195623,9.428920204612723e-07,0.0,
24728,Al9Cl36Dy3,mp-28714,Dy(AlCl4)3,"['Dy', 'Al', 'Cl']",48.0,-196.30924053,2.3800095214632222e-05,0.0,
4715,Al6Cu6Dy1,mp-1225665,Dy(AlCu)6,"['Dy', 'Al', 'Cu']",13.0,-56.25301157,0.0046552614047481455,0.0,
9592,Al6Dy1Fe6,mp-1225629,Dy(AlFe)6,"['Dy', 'Al', 'Fe']",13.0,-82.93234156,0.00039915058293260586,0.0,
392,B4C4Dy2,mp-2958,Dy(BC)2,"['Dy', 'B', 'C']",10.0,-77.30670442,0.00011035023632821606,0.0,
2411,B4Dy2Ir4,mp-1095029,Dy(BIr)2,"['Dy', 'B', 'Ir']",10.0,-78.7116028,0.0,0.0,
292,B48Dy16O96,mp-3261,Dy(BO2)3,"['Dy', 'B', 'O']",160.0,-1315.21062108,2.884530078084424e-05,0.0,
29944,B16Dy4Ru16,mp-1202990,Dy(BRu)4,"['Dy', 'B', 'Ru']",36.0,-291.59813668,0.0004020328689229302,7.105427357601002e-15,
6634,Cl6Dy2O24,mp-768166,Dy(ClO4)3,"['Dy', 'Cl', 'O']",32.0,-154.1481922,0.0013339557556149018,4.440892098500626e-15,
5627,B6Co12Dy1,mp-1106057,Dy(Co2B)6,"['Dy', 'Co', 'B']",19.0,-136.61119655,0.0,0.0,
22480,B2Co2Dy1,mp-5135,Dy(CoB)2,"['Dy', 'Co', 'B']",5.0,-35.00848891,0.0012303796210968443,0.0,
14825,B8Co8Dy2,mp-1189595,Dy(CoB)4,"['Dy', 'Co', 'B']",18.0,-128.60285737,0.0003476794769960989,0.0,
16433,Co2Dy1Si2,mp-5976,Dy(CoSi)2,"['Dy', 'Co', 'Si']",5.0,-33.82677914,0.0013223702421880645,0.0,
29360,Cu4Dy2O8,mp-9420,Dy(CuO2)2,"['Dy', 'Cu', 'O']",14.0,-88.86794547,8.552516183080172e-05,0.0,
31839,Cu6Dy2S6,mp-1225724,Dy(CuS)3,"['Dy', 'Cu', 'S']",14.0,-70.56201767,0.0008511810072588943,0.0,
2595,Cu2Dy1Si2,mp-2917,Dy(CuSi)2,"['Dy', 'Cu', 'Si']",5.0,-26.63404789,0.0,0.0,
15542,B2Dy1Fe2,mp-568725,Dy(FeB)2,"['Dy', 'Fe', 'B']",5.0,-37.10105659,0.005620896355464922,0.0,
27267,Dy1Fe2Ge2,mp-21426,Dy(FeGe)2,"['Dy', 'Fe', 'Ge']",5.0,-33.07682046,0.0,0.0,
29329,Dy2Fe12Ge12,mp-1193865,Dy(FeGe)6,"['Dy', 'Fe', 'Ge']",26.0,-173.55145007,0.0,0.0,
15521,Dy1Fe2Si2,mp-4939,Dy(FeSi)2,"['Dy', 'Fe', 'Si']",5.0,-35.78464265,0.0007614785449225892,0.0,
26153,Dy1Fe6Ga6,mp-1104284,Dy(GaFe)6,"['Dy', 'Ga', 'Fe']",13.0,-77.76088145,0.000986977554086721,0.0,
12172,Dy1Ge2Pd2,mp-22180,Dy(GePd)2,"['Dy', 'Ge', 'Pd']",5.0,-28.19725933,0.0,0.0,
30038,Dy1Ge2Rh2,mp-4337,Dy(GeRh)2,"['Dy', 'Ge', 'Rh']",5.0,-32.98546786,6.217248937900877e-15,6.217248937900877e-15,
20432,Dy1Ge2Ru2,mp-21082,Dy(GeRu)2,"['Dy', 'Ge', 'Ru']",5.0,-35.65052606,0.0,0.0,
29068,Dy4I12O36,mp-559637,Dy(IO3)3,"['Dy', 'I', 'O']",52.0,-267.58597073,4.2099655958693916e-05,0.0,
6882,Dy2In8Pt8,mp-1205433,Dy(InPt)4,"['Dy', 'In', 'Pt']",18.0,-92.31127446,0.0015348898455034288,0.0,
26584,Al8Dy1Mn4,mp-1104103,Dy(MnAl2)4,"['Dy', 'Mn', 'Al']",13.0,-75.67181266,0.00013566884465188167,0.0,
1840,Dy1Mn2Si2,mp-4985,Dy(MnSi)2,"['Dy', 'Mn', 'Si']",5.0,-36.94190472,8.527914453271279e-05,0.0,
11286,Dy4N12O36,mp-1196716,Dy(NO3)3,"['Dy', 'N', 'O']",52.0,-347.58550074,0.0017342997340747957,0.0,
28409,As4Dy2Ni8,mp-11340,Dy(Ni2As)2,"['Dy', 'Ni', 'As']",14.0,-82.9075026,0.0007426775320871215,0.0,
1320,B12Dy2Ni24,mp-1202380,Dy(Ni2B)6,"['Dy', 'Ni', 'B']",38.0,-243.01507341,0.0,0.0,
9356,Dy2Ni8P4,mp-866032,Dy(Ni2P)2,"['Dy', 'Ni', 'P']",14.0,-88.74415679,0.00041846205636097977,0.0,
6972,B4Dy2Ni4,mp-1079900,Dy(NiB)2,"['Dy', 'Ni', 'B']",10.0,-64.64918982,0.000991357355468736,0.0,
11919,Dy1Ge2Ni2,mp-21415,Dy(NiGe)2,"['Dy', 'Ni', 'Ge']",5.0,-28.8686715,0.0,0.0,
31564,Dy1Ni2P2,mp-5227,Dy(NiP)2,"['Dy', 'Ni', 'P']",5.0,-32.06975175,9.002475585884184e-05,0.0,
20571,Dy4O36P12,mp-771106,Dy(PO3)3,"['Dy', 'P', 'O']",52.0,-393.89321725,2.6339693494747962e-05,-1.4210854715202004e-14,
20029,Dy1P2Pt8,mp-568782,Dy(PPt4)2,"['Dy', 'P', 'Pt']",11.0,-70.98596736,0.0035818524378550265,0.0,
17344,Dy1P2Ru2,mp-569089,Dy(PRu)2,"['Dy', 'P', 'Ru']",5.0,-39.17251352,3.552713678800501e-15,3.552713678800501e-15,
16933,Ag2Dy1Si2,mp-1206850,Dy(SiAg)2,"['Dy', 'Si', 'Ag']",5.0,-23.05636435,0.01525082346618678,0.0,
16778,Au2Dy1Si2,mp-2954,Dy(SiAu)2,"['Dy', 'Si', 'Au']",5.0,-24.764094,0.006399109240724954,0.0,
26534,Dy1Ir2Si2,mp-4065,Dy(SiIr)2,"['Dy', 'Si', 'Ir']",5.0,-38.59864219,0.0,0.0,
27143,Dy1Ni2Si2,mp-4692,Dy(SiNi)2,"['Dy', 'Si', 'Ni']",5.0,-31.30419089,0.0013062525419966775,0.0,
3674,Dy2Ni20Si4,mp-542389,Dy(SiNi5)2,"['Dy', 'Si', 'Ni']",26.0,-157.99713307,0.007667071782320178,0.0,
8021,Dy1Os2Si2,mp-12088,Dy(SiOs)2,"['Dy', 'Si', 'Os']",5.0,-41.53704483,1.1383121092833903e-05,0.0,
7095,Dy1Pd2Si2,mp-3301,Dy(SiPd)2,"['Dy', 'Si', 'Pd']",5.0,-30.54414678,0.027434260943359767,0.0,
8687,Dy2Pt4Si4,mp-1080061,Dy(SiPt)2,"['Dy', 'Si', 'Pt']",10.0,-66.05885686,0.0,0.0,
26137,Dy1Rh2Si2,mp-2893,Dy(SiRh)2,"['Dy', 'Si', 'Rh']",5.0,-35.7879801,0.0,0.0,
16515,Dy1Ru2Si2,mp-4177,Dy(SiRu)2,"['Dy', 'Si', 'Ru']",5.0,-38.58613848,6.619438085930796e-05,0.0,