,Composition,MaterialId,Reduced Formula,Elements,NSites,Corrected Energy,Decomposition Energy Per Atom All,Decomposition Energy Per Atom MP,Directory
22780,Cl12Eu10O8Si2,mp-669318,Eu5Si(Cl3O2)2,"['Eu', 'Si', 'Cl', 'O']",32.0,-260.0114347,0.006816631079102464,-3.019806626980426e-14,
13132,Eu10Si6,mp-1190061,Eu5Si3,"['Eu', 'Si']",16.0,-143.26810681,0.04113358316406135,0.0,
23943,Eu10F2O24Si6,mp-558207,Eu5Si3O12F,"['Eu', 'Si', 'O', 'F']",42.0,-387.29995404,0.039831027088915505,0.0,
12977,Eu10O26Si6,mp-1213303,Eu5Si3O13,"['Eu', 'Si', 'O']",42.0,-387.40909085,0.05078771320684616,-1.7763568394002505e-14,
21518,Eu10H2Sn6,mp-1188090,Eu5Sn3H,"['Eu', 'Sn', 'H']",18.0,-145.4308332,0.032240996809894895,0.0,
12628,Eu6P19Rh30,mp-1229174,Eu6P19Rh30,"['Eu', 'P', 'Rh']",55.0,-433.94560931,0.024001949867897387,0.0,
30354,Eu24S68Sb24,mp-1198785,Eu6Sb6S17,"['Eu', 'Sb', 'S']",116.0,-746.13831937,0.03443841991194674,-8.881784197001252e-16,
23444,Eu6O12W1,mp-752681,Eu6WO12,"['Eu', 'W', 'O']",19.0,-179.37142062,0.07233390908305992,0.0,
16963,Au6Eu14,mp-1106137,Eu7Au3,"['Eu', 'Au']",20.0,-174.37345958,0.03482738721093703,0.0,
29018,As23Cu44Eu7,mp-1196262,Eu7Cu44As23,"['Eu', 'Cu', 'As']",74.0,-378.82504956,0.014009950387456449,0.0,
546,Eu16In6,mp-1192827,Eu8In3,"['Eu', 'In']",22.0,-187.19591034,0.03235405658913315,0.0,
23921,Eu8Mn3Nb5O28,mp-1229284,Eu8Mn3Nb5O28,"['Eu', 'Mn', 'Nb', 'O']",44.0,-409.00771423,0.037215423661221436,0.0,
22126,Ag4Eu4,mp-665747,EuAg,"['Eu', 'Ag']",8.0,-54.93518381,0.023251140266113524,0.0,
9288,Ag4Eu2,mp-1436,EuAg2,"['Eu', 'Ag']",6.0,-33.72535151,0.0164708797216786,0.0,
28157,Ag5Eu1,mp-542568,EuAg5,"['Eu', 'Ag']",6.0,-25.45004919,0.010981276916910865,0.0,
20817,Ag2Eu2O4,mp-756690,EuAgO2,"['Eu', 'Ag', 'O']",8.0,-60.29075791,0.055039332600097524,0.0,
22884,Ag2Eu2P2,mp-20482,EuAgP,"['Eu', 'Ag', 'P']",6.0,-41.60162128,0.02319673249651455,0.0,
29286,Ag2Eu2Sb2,mp-22707,EuAgSb,"['Eu', 'Ag', 'Sb']",6.0,-38.88796478,0.015562098637689203,0.0,
15821,Ag2Eu2Sn2,mp-1225251,EuAgSn,"['Eu', 'Ag', 'Sn']",6.0,-37.13662602,0.03518060596028594,0.0,
9693,Al10Eu10,mp-1189619,EuAl,"['Eu', 'Al']",20.0,-146.0132929,0.029775113300781086,0.0,
24718,Al24Eu2O38,mp-1212749,EuAl12O19,"['Eu', 'Al', 'O']",64.0,-491.77640588,0.0038692112561022896,2.842170943040401e-14,
19178,Al4Eu2,mp-20111,EuAl2,"['Eu', 'Al']",6.0,-37.82766367,0.03127093944010362,0.0,
21091,Al8Eu4Ge4,mp-1190090,EuAl2Ge,"['Eu', 'Al', 'Ge']",16.0,-96.59996063,0.0,0.0,
20025,Al8Eu4O16,mp-1019732,EuAl2O4,"['Eu', 'Al', 'O']",28.0,-234.85998185,0.003369749602407879,0.0,
12979,Al3B4Eu1O12,mp-1019731,EuAl3(BO3)4,"['Eu', 'Al', 'B', 'O']",20.0,-162.16202176,0.0191214567661131,3.019806626980426e-14,
8751,Al12Eu4O32Pb8,mp-1196233,EuAl3(PbO4)2,"['Eu', 'Al', 'Pb', 'O']",56.0,-411.69956835,0.012015692976737213,-1.3322676295501878e-14,
20650,Ag2Al3Eu1,mp-1225214,EuAl3Ag2,"['Eu', 'Al', 'Ag']",6.0,-29.12434936,0.012524961708169968,0.0,
30033,Al3Cu2Eu1,mp-1025136,EuAl3Cu2,"['Eu', 'Al', 'Cu']",6.0,-31.94803867,0.014194711616211109,0.0,
8454,Al9Eu3Pd6,mp-1189717,EuAl3Pd2,"['Eu', 'Al', 'Pd']",18.0,-109.23621831,0.01031765139756935,0.0,
8909,Al4Eu1,mp-582799,EuAl4,"['Eu', 'Al']",5.0,-26.67882197,0.013304056927734287,0.0,
24658,Al8Au4Eu1Si1,mp-1225219,EuAl8SiAu4,"['Eu', 'Al', 'Si', 'Au']",14.0,-65.51937013,0.005026745562212831,0.0,
17589,Al9Co2Eu1,mp-21407,EuAl9Co2,"['Eu', 'Al', 'Co']",12.0,-63.09238525,-9.769962616701378e-15,-9.769962616701378e-15,
6558,Al4Au4Eu4,mp-1103193,EuAlAu,"['Eu', 'Al', 'Au']",12.0,-77.23677673,0.023015467609049267,0.0,
31521,Al32Eu32F160,mp-1202507,EuAlF5,"['Eu', 'Al', 'F']",224.0,-1571.08747806,-6.217248937900877e-15,0.0,
30997,Al2Eu2Ge2,mp-1206175,EuAlGe,"['Eu', 'Al', 'Ge']",6.0,-40.49459341,0.0,0.0,
24960,Al4Eu4Ge8O28,mp-1212768,EuAlGe2O7,"['Eu', 'Al', 'Ge', 'O']",44.0,-329.86467539,0.024180429689874217,0.0,
22850,Al4Eu4O12,mp-21455,EuAlO3,"['Eu', 'Al', 'O']",20.0,-173.75387841,0.04349673501757856,0.0,
16883,Al1Eu1Si1,mp-1225173,EuAlSi,"['Eu', 'Al', 'Si']",3.0,-20.92291091,0.02502208253092597,0.0,
26088,As6Eu6,mp-1101926,EuAs,"['Eu', 'As']",12.0,-103.47596882,0.06894614844319591,0.0,
11104,As6Eu2,mp-1078796,EuAs3,"['Eu', 'As']",8.0,-53.55231657,0.015183699166259501,0.0,
83,As2Au2Eu2,mp-19729,EuAsAu,"['Eu', 'As', 'Au']",6.0,-41.93810963,0.015641014832357136,-1.7763568394002505e-15,
14651,As2Eu2O8,mp-13576,EuAsO4,"['Eu', 'As', 'O']",12.0,-93.45128308,0.10384604907877737,7.105427357601002e-15,
19744,As2Eu2Pd2,mp-1025079,EuAsPd,"['Eu', 'As', 'Pd']",6.0,-46.39071644,0.0266202478743498,0.0,
4288,As2Eu2Pt2,mp-20732,EuAsPt,"['Eu', 'As', 'Pt']",6.0,-48.54589836,0.024813982846678684,0.0,
20020,Au4Eu4,mp-1078589,EuAu,"['Eu', 'Au']",8.0,-60.69098048,0.02695351269287105,0.0,
23792,Au4Eu2,mp-1071698,EuAu2,"['Eu', 'Au']",6.0,-38.13409525,0.026308526855468806,0.0,
23005,Au5Eu1,mp-510098,EuAu5,"['Eu', 'Au']",6.0,-29.23750333,0.011999613694388955,0.0,
15400,B2Eu1Rh3,mp-21127,EuB2Rh3,"['Eu', 'B', 'Rh']",6.0,-49.29494816,0.013572126735025947,0.0,
1156,B8Eu2O14,mp-8109,EuB4O7,"['Eu', 'B', 'O']",24.0,-205.24605133,0.0012312139111330112,0.0,
8367,B16Eu4Ru4,mp-1191457,EuB4Ru,"['Eu', 'B', 'Ru']",24.0,-195.03917076,0.035591955231128125,0.0,
29763,B6Eu1,mp-20874,EuB6,"['Eu', 'B']",7.0,-53.66813091,0.010061803942522651,0.0,
14527,B4Eu4O12,mp-22030,EuBO3,"['Eu', 'B', 'O']",20.0,-180.96753184,0.08583454081250075,0.0,
15290,B2Eu2Pt8,mp-1103637,EuBPt4,"['Eu', 'B', 'Pt']",12.0,-90.64163579,0.011859584638672871,0.0,
194,Be26Eu2,mp-1194109,EuBe13,"['Eu', 'Be']",28.0,-120.66700504,0.007579071970563511,0.0,
10752,Bi4Eu2,mp-1077479,EuBi2,"['Eu', 'Bi']",6.0,-39.85567593,0.013918361031901583,0.0,
17352,Bi2Br1Eu1O4,mp-669431,EuBi2BrO4,"['Eu', 'Bi', 'Br', 'O']",8.0,-53.39213842,0.031765297902831335,-1.7763568394002505e-15,
19087,Bi2Cl1Eu1O4,mp-550566,EuBi2ClO4,"['Eu', 'Bi', 'Cl', 'O']",8.0,-53.91173775,0.031628747589109274,0.0,
10924,Bi2Eu1I1O4,mp-669573,EuBi2IO4,"['Eu', 'Bi', 'I', 'O']",8.0,-52.75974399,0.031081382506097377,0.0,
5364,Au2Bi2Eu2,mp-1018695,EuBiAu,"['Eu', 'Bi', 'Au']",6.0,-39.18819532,0.014975055716146102,0.0,
23949,Br20Eu10,mp-23311,EuBr2,"['Eu', 'Br']",30.0,-196.73193385,0.023327638349608826,0.0,
26527,Br6Eu2,mp-1205810,EuBr3,"['Eu', 'Br']",8.0,-42.85421975,0.17100513274274487,0.0,
19115,Br4Cl4Eu4,mp-1212756,EuBrCl,"['Eu', 'Br', 'Cl']",12.0,-81.48815078,0.022162104901529922,0.0,
30679,Br2Eu2O2,mp-504727,EuBrO,"['Eu', 'Br', 'O']",6.0,-47.62262026,0.07394230306152316,0.0,
7873,C12Eu2,mp-1103990,EuC6,"['Eu', 'C']",14.0,-132.16731009,0.007993606503905681,0.0,
14555,C4Eu4N8,mp-1212716,EuCN2,"['Eu', 'C', 'N']",16.0,-157.59167219,0.015308574062499858,0.0,
28495,C4Eu4O12,mp-554518,EuCO3,"['Eu', 'C', 'O']",20.0,-181.6472189,0.004496824775381825,-8.881784197001252e-15,
20307,Cd1Eu1,mp-580236,EuCd,"['Eu', 'Cd']",2.0,-11.88553468,0.024509233181152723,0.0,
5641,Cd22Eu2,mp-583684,EuCd11,"['Eu', 'Cd']",24.0,-43.6636101,0.004087860416666755,0.0,
3817,Cd4Eu2,mp-30487,EuCd2,"['Eu', 'Cd']",6.0,-26.2578146,0.01623372999674455,0.0,
23367,Cd3Eu1,mp-864634,EuCd3,"['Eu', 'Cd']",4.0,-14.12722858,0.022908279776077123,0.0,
23372,Ag2Cd2Eu2,mp-1225230,EuCdAg,"['Eu', 'Cd', 'Ag']",6.0,-30.03599007,0.024152386404622028,0.0,
4757,Au4Cd4Eu4,mp-11084,EuCdAu,"['Eu', 'Cd', 'Au']",12.0,-65.370874,0.017133587565104413,0.0,
19617,Au2Cd1Eu1,mp-866297,EuCdAu2,"['Eu', 'Cd', 'Au']",4.0,-20.03813862,0.027409257506103124,0.0,
11149,Au5Cd1Eu1,mp-1225324,EuCdAu5,"['Eu', 'Cd', 'Au']",7.0,-30.58735665,0.005684432080077961,0.0,
29744,Cd4Eu4Ge4,mp-1102923,EuCdGe,"['Eu', 'Cd', 'Ge']",12.0,-69.44876137,0.0,0.0,
18850,Cd1Eu1Hg2,mp-864796,EuCdHg2,"['Eu', 'Cd', 'Hg']",4.0,-13.38962193,0.012273024351196149,0.0,
10884,Cd2Eu2Pb2,mp-1018696,EuCdPb,"['Eu', 'Cd', 'Pb']",6.0,-32.43317579,0.013780317755533567,0.0,
27121,Cd4Eu4Pd4,mp-11090,EuCdPd,"['Eu', 'Cd', 'Pd']",12.0,-72.89971104,0.030888710805121455,0.0,
20196,Cd4Eu4Pt4,mp-1095346,EuCdPt,"['Eu', 'Cd', 'Pt']",12.0,-78.04702721,0.02395251562174483,2.6645352591003757e-15,
27031,Cd2Eu2Sn2,mp-1018697,EuCdSn,"['Eu', 'Cd', 'Sn']",6.0,-33.7389181,0.015599602758789466,0.0,
27194,Cl4Eu2,mp-1183892,EuCl2,"['Eu', 'Cl']",6.0,-42.12563304,0.023685066453451142,0.0,
23562,Cl6Eu2,mp-569895,EuCl3,"['Eu', 'Cl']",8.0,-46.44733684,0.062320153911133325,0.0,
424,Cl2Eu2F2,mp-556382,EuClF,"['Eu', 'Cl', 'F']",6.0,-46.78235561,0.006685436866860073,0.0,
10998,Cl2Eu2O2,mp-542757,EuClO,"['Eu', 'Cl', 'O']",6.0,-48.89254814,0.07770040663899636,0.0,
3362,Co2Eu1Ge1Si1,mp-1225172,EuCo2SiGe,"['Eu', 'Co', 'Si', 'Ge']",5.0,-37.40382717,0.0,0.0,
25041,Co16Eu2P10,mp-583224,EuCo8P5,"['Eu', 'Co', 'P']",28.0,-207.76247125,0.007215327758782308,-1.3322676295501878e-14,
7643,Co4Eu4O12,mp-1212757,EuCoO3,"['Eu', 'Co', 'O']",20.0,-158.43175778,0.07016648282352733,-6.217248937900877e-14,
3284,Cr4Eu4O12,mp-1189762,EuCrO3,"['Eu', 'Cr', 'O']",20.0,-178.81402727,0.04275228029882783,0.0,
7209,Cr2Eu2O8,mp-22586,EuCrO4,"['Eu', 'Cr', 'O']",12.0,-100.01669371,0.02151956815266942,0.0,
24977,Cu4Eu4,mp-1087547,EuCu,"['Eu', 'Cu']",8.0,-58.63837337,0.046191971124674325,0.0,
21613,Cu8Eu8Mo16O64,mp-560455,EuCu(MoO4)2,"['Eu', 'Cu', 'Mo', 'O']",96.0,-714.6130271,0.024712476090479996,0.0,
13006,Cu4Eu2,mp-1071732,EuCu2,"['Eu', 'Cu']",6.0,-37.74205862,0.03728304134354499,0.0,
27838,Cu3Eu1Pd2,mp-1225157,EuCu3Pd2,"['Eu', 'Cu', 'Pd']",6.0,-35.08691908,0.011925178968098749,0.0,
30842,Cu4Eu1P3,mp-1079564,EuCu4P3,"['Eu', 'Cu', 'P']",8.0,-46.39316233,0.009532382089843416,0.0,
8125,Cu4Eu1Pd1,mp-1225153,EuCu4Pd,"['Eu', 'Cu', 'Pd']",6.0,-33.33881359,0.011605612604165927,0.0,
19577,Cu5Eu1,mp-2066,EuCu5,"['Eu', 'Cu']",6.0,-31.43003683,0.013461701225586431,0.0,
20964,As2Cu2Eu2,mp-22277,EuCuAs,"['Eu', 'Cu', 'As']",6.0,-43.11120462,0.01990024318359307,0.0,
19421,Cu1Eu1O2,mp-13696,EuCuO2,"['Eu', 'Cu', 'O']",4.0,-32.05102382,0.046969943742675824,0.0,
22959,Cu2Eu2P2,mp-21373,EuCuP,"['Eu', 'Cu', 'P']",6.0,-44.88948645,0.02317775983886694,0.0,
8885,Cu2Eu2Sb2,mp-22292,EuCuSb,"['Eu', 'Cu', 'Sb']",6.0,-41.28501333,0.017567424532871634,0.0,
6239,Cu2Eu2O2Se2,mp-510596,EuCuSeO,"['Eu', 'Cu', 'Se', 'O']",8.0,-58.56383956,0.04122641104858449,0.0,
1538,Cu4Dy4Eu4S12,mp-542765,EuDyCuS3,"['Eu', 'Dy', 'Cu', 'S']",24.0,-165.81304923,0.006486708108724315,0.0,
25059,Eu1F2,mp-504731,EuF2,"['Eu', 'F']",3.0,-25.40762332,0.005375463361003696,0.0,
23935,Eu4F12,mp-19908,EuF3,"['Eu', 'F']",16.0,-119.41987806,0.09037617441162116,0.0,
27600,Eu4Ga4,mp-1079244,EuGa,"['Eu', 'Ga']",8.0,-56.91728448,0.029898823392334073,0.0,
8010,Eu2Ga4,mp-22317,EuGa2,"['Eu', 'Ga']",6.0,-35.99476067,0.021352423937174514,0.0,
2751,Ag1Eu1Ga3,mp-1225128,EuGa3Ag,"['Eu', 'Ga', 'Ag']",5.0,-24.26328327,0.0076678241494141375,0.0,
23052,Co4Eu2Ga6,mp-22545,EuGa3Co2,"['Eu', 'Ga', 'Co']",12.0,-71.98722406,0.011295679733072994,0.0,
6983,Cu1Eu1Ga3,mp-1225152,EuGa3Cu,"['Eu', 'Ga', 'Cu']",5.0,-25.53024086,0.011383087155273586,0.0,
28098,Eu2Ga6Ni4,mp-1102481,EuGa3Ni2,"['Eu', 'Ga', 'Ni']",12.0,-68.01322392,0.012727555820312375,0.0,
15982,Eu2Ga6Pd2,mp-1078429,EuGa3Pd,"['Eu', 'Ga', 'Pd']",10.0,-55.66965075,0.013150815502928737,0.0,
22417,Eu1Ga4,mp-21884,EuGa4,"['Eu', 'Ga']",5.0,-24.59109167,0.009304325301757288,0.0,
2935,Au3Eu1Ga4,mp-1212681,EuGa4Au3,"['Eu', 'Ga', 'Au']",8.0,-35.94815182,0.008251504578704605,0.0,
29618,Au2Eu2Ga2,mp-1225205,EuGaAu,"['Eu', 'Ga', 'Au']",6.0,-37.25711701,0.0443053681250003,0.0,
13588,Eu4Ga4Ge4,mp-1101845,EuGaGe,"['Eu', 'Ga', 'Ge']",12.0,-78.95261582,-6.217248937900877e-15,-6.217248937900877e-15,
13966,Eu4Ga4Pt4,mp-1102975,EuGaPt,"['Eu', 'Ga', 'Pt']",12.0,-88.40924201,0.03597566685058595,0.0,
26600,Eu1Ga1Si1,mp-1225124,EuGaSi,"['Eu', 'Ga', 'Si']",3.0,-20.37000927,0.023513175869140923,0.0,
13355,Eu4Ga4Sn4,mp-1102160,EuGaSn,"['Eu', 'Ga', 'Sn']",12.0,-76.20195324,0.017551158222656404,0.0,
30586,Eu2Ge2,mp-20712,EuGe,"['Eu', 'Ge']",4.0,-32.62332972,0.0,0.0,
8196,Eu1Ge3Ir1,mp-1068715,EuGe3Ir,"['Eu', 'Ge', 'Ir']",5.0,-35.97295648,-3.552713678800501e-15,-3.552713678800501e-15,
24979,Eu1Ge3Pd1,mp-1068422,EuGe3Pd,"['Eu', 'Ge', 'Pd']",5.0,-32.24213333,0.0,0.0,
15958,Eu1Ge3Pt1,mp-19763,EuGe3Pt,"['Eu', 'Ge', 'Pt']",5.0,-33.47142892,0.0,0.0,
10863,Eu1Ge3Rh1,mp-1069658,EuGe3Rh,"['Eu', 'Ge', 'Rh']",5.0,-34.67735126,0.0,0.0,
9439,Eu2Ge14Ir6,mp-1191379,EuGe7Ir3,"['Eu', 'Ge', 'Ir']",22.0,-148.02317642,0.0,0.0,
19129,Eu2Ge14Rh6,mp-1191926,EuGe7Rh3,"['Eu', 'Ge', 'Rh']",22.0,-140.32793549,0.0,0.0,
17884,Eu1Ge1O3,mp-865181,EuGeO3,"['Eu', 'Ge', 'O']",5.0,-40.69829152,0.027377063153004144,-7.105427357601002e-15,
1150,Eu4Ge4Pd4,mp-20615,EuGePd,"['Eu', 'Ge', 'Pd']",12.0,-89.7921816,0.0,0.0,
23874,Eu4Ge4Pd8,mp-1188312,EuGePd2,"['Eu', 'Ge', 'Pd']",16.0,-113.36700586,0.0,0.0,
21578,Eu4Ge4Pt4,mp-19798,EuGePt,"['Eu', 'Ge', 'Pt']",12.0,-94.85915066,0.0,0.0,
1895,Eu4H8,mp-1102496,EuH2,"['Eu', 'H']",12.0,-74.96909006,0.01726679716471402,0.0,
18943,Eu1H3Pd1,mp-644246,EuH3Pd,"['Eu', 'H', 'Pd']",5.0,-28.25175389,0.048291634821452156,0.0,
6326,Eu4H16N4O32S8,mp-774926,EuH4S2NO8,"['Eu', 'H', 'S', 'N', 'O']",64.0,-411.17278794,0.0,-1.2434497875801753e-14,
23682,Cl2Eu2H2,mp-1070860,EuHCl,"['Eu', 'H', 'Cl']",6.0,-40.09179173,0.009731906083978892,-6.217248937900877e-15,
29467,Eu4H4O20S4,mp-560128,EuHSO5,"['Eu', 'H', 'S', 'O']",32.0,-228.90892257,0.033209424234619256,0.0,
26894,Eu2F14Hf2,mp-1212722,EuHfF7,"['Eu', 'Hf', 'F']",18.0,-133.27699054,0.05517942638020834,0.0,
11126,Eu1Hf1O3,mp-753781,EuHfO3,"['Eu', 'Hf', 'O']",5.0,-51.62651459,0.0624741938164064,0.0,
27286,Eu4Hf4S12,mp-1190059,EuHfS3,"['Eu', 'Hf', 'S']",20.0,-166.75555683,0.011447549125000123,0.0,
24610,Eu1Hg1,mp-11375,EuHg,"['Eu', 'Hg']",2.0,-11.66889469,0.02343563153198236,0.0,
26481,Eu2Hg6,mp-1080132,EuHg3,"['Eu', 'Hg']",8.0,-25.73341735,0.012203951931762713,0.0,
14149,Eu2Hg2Pb2,mp-1018698,EuHgPb,"['Eu', 'Hg', 'Pb']",6.0,-31.32778416,0.01577614095112967,0.0,
21169,Eu4I8,mp-1102093,EuI2,"['Eu', 'I']",12.0,-72.81070667,0.026310444736328265,0.0,
1102,Eu2I2O2,mp-600622,EuIO,"['Eu', 'I', 'O']",6.0,-46.39604064,0.07178517307779941,0.0,
13418,Eu1In1,mp-1058490,EuIn,"['Eu', 'In']",2.0,-13.92167422,0.04382445005859381,0.0,
27522,Eu2In4,mp-636316,EuIn2,"['Eu', 'In']",6.0,-34.3894034,0.018203884830729322,0.0,
21093,Au2Eu2In4,mp-639496,EuIn2Au,"['Eu', 'In', 'Au']",8.0,-42.37216296,0.013043743616943715,0.0,
52,Eu2In4Ni2,mp-19997,EuIn2Ni,"['Eu', 'In', 'Ni']",8.0,-46.10294321,0.014863517359619216,0.0,
28385,Eu2In4Ni18,mp-1191370,EuIn2Ni9,"['Eu', 'In', 'Ni']",24.0,-139.1189691,0.01025723842772397,-1.0658141036401503e-14,
477,Eu2In4Pd2,mp-21258,EuIn2Pd,"['Eu', 'In', 'Pd']",8.0,-46.88550143,0.013925129477539322,0.0,
21659,Eu2In4Rh2,mp-21487,EuIn2Rh,"['Eu', 'In', 'Rh']",8.0,-50.63653715,0.016967108416747756,0.0,
1875,Eu1In3,mp-1184378,EuIn3,"['Eu', 'In']",4.0,-20.00738118,0.022912090253906392,0.0,
6345,Au2Eu2In8,mp-1102671,EuIn4Au,"['Eu', 'In', 'Au']",12.0,-53.56799207,0.008115541713053176,0.0,
25476,Cu2Eu2In8,mp-1095660,EuIn4Cu,"['Eu', 'In', 'Cu']",12.0,-53.94807749,0.010780072041015387,0.0,
23468,Eu2In8Ir2,mp-1095333,EuIn4Ir,"['Eu', 'In', 'Ir']",12.0,-64.5232733,0.027644171411132845,0.0,
21642,Eu2In8Ni2,mp-1103002,EuIn4Ni,"['Eu', 'In', 'Ni']",12.0,-58.00662956,0.01399583836344398,0.0,
17155,Eu2In8Pd2,mp-22008,EuIn4Pd,"['Eu', 'In', 'Pd']",12.0,-58.49593538,0.010486130951334438,0.0,
9198,Au4Eu4In4,mp-19901,EuInAu,"['Eu', 'In', 'Au']",12.0,-73.23558761,0.027557199763455387,0.0,
15263,Eu1Hg2In1,mp-1184408,EuInHg2,"['Eu', 'In', 'Hg']",4.0,-15.31678141,0.011995700890502725,0.0,
9632,Eu2In2Ni10,mp-1006242,EuInNi5,"['Eu', 'In', 'Ni']",14.0,-86.54998247,0.014070073641183178,0.0,
29275,Eu4In4Pd4,mp-22322,EuInPd,"['Eu', 'In', 'Pd']",12.0,-81.30701472,0.02077609165201899,0.0,
20669,Eu4In4Pt4,mp-21051,EuInPt,"['Eu', 'In', 'Pt']",12.0,-86.45464483,0.022739278693033604,0.0,
19437,Eu1In1Pt4,mp-1077596,EuInPt4,"['Eu', 'In', 'Pt']",6.0,-41.48932067,0.016357753933919916,-6.217248937900877e-15,
15327,Eu4In4Rh4,mp-1101788,EuInRh,"['Eu', 'In', 'Rh']",12.0,-88.37406596,0.02399598852213547,0.0,
29953,Eu2Ir4,mp-995,EuIr2,"['Eu', 'Ir']",6.0,-58.95851711,0.03720187550618448,0.0,
30254,Cu2Eu2Lu2S6,mp-1212752,EuLuCuS3,"['Eu', 'Lu', 'Cu', 'S']",12.0,-82.61171298,0.008545723142903583,0.0,
12089,Cu18Eu2Mg4,mp-13223,EuMg2Cu9,"['Eu', 'Mg', 'Cu']",24.0,-104.02272757,0.0,0.0,
20090,Ag4Eu4Mg4,mp-1212683,EuMgAg,"['Eu', 'Mg', 'Ag']",12.0,-62.16158955,0.0,0.0,
21487,Cd2Eu1Mg1,mp-1184290,EuMgCd2,"['Eu', 'Mg', 'Cd']",4.0,-14.81625343,0.0,0.0,
6340,Eu1Ga3Mg1,mp-1225137,EuMgGa3,"['Eu', 'Mg', 'Ga']",5.0,-23.09933687,0.0,0.0,
28869,Eu1Hg2Mg1,mp-861928,EuMgHg2,"['Eu', 'Mg', 'Hg']",4.0,-14.21084168,0.0,0.0,
4991,Eu4Mg4Pb4,mp-1103008,EuMgPb,"['Eu', 'Mg', 'Pb']",12.0,-67.73090695,0.0,0.0,
27860,Eu4Mg4Pd4,mp-1102076,EuMgPd,"['Eu', 'Mg', 'Pd']",12.0,-75.59175292,0.0,0.0,
6161,Eu1Mg1Zn2,mp-1184328,EuMgZn2,"['Eu', 'Mg', 'Zn']",4.0,-15.34471966,0.012678848486634031,0.0,
5763,Eu4Mn8O20,mp-542392,EuMn2O5,"['Eu', 'Mn', 'O']",32.0,-262.46573305,0.02765688649902387,0.0,
13382,Eu4Mn4O12,mp-20614,EuMnO3,"['Eu', 'Mn', 'O']",20.0,-175.31547145,0.034482793466796835,8.881784197001252e-15,
12760,Eu2Mo2O8,mp-1095254,EuMoO4,"['Eu', 'Mo', 'O']",12.0,-101.78065095,0.011949360327147218,0.0,
23809,Eu4F4Mo4O16,mp-582540,EuMoO4F,"['Eu', 'Mo', 'O', 'F']",28.0,-220.18028669,0.03911231094586931,0.0,
5668,Eu1N1,mp-20340,EuN,"['Eu', 'N']",2.0,-20.24887341,0.09084004365722542,0.0,
31084,Eu4Nb8O24,mp-1201130,EuNb2O6,"['Eu', 'Nb', 'O']",36.0,-340.66513492,0.007797304739582955,0.0,
5694,Eu2Nb16O28,mp-21593,EuNb8O14,"['Eu', 'Nb', 'O']",46.0,-432.31564244,0.0019297594989815536,0.0,
19874,Eu2Nb2O6,mp-1078341,EuNbO3,"['Eu', 'Nb', 'O']",10.0,-97.7802345,0.036852617243301466,-1.7763568394002505e-14,
20547,Eu2Nb2O8,mp-12646,EuNbO4,"['Eu', 'Nb', 'O']",12.0,-113.13065388,0.04631692418456268,3.552713678800501e-14,
21672,B2C1Eu1Ni2,mp-21064,EuNi2B2C,"['Eu', 'Ni', 'B', 'C']",6.0,-46.57833513,0.01902638478678398,0.0,
19393,B2Eu2Ni8,mp-1103796,EuNi4B,"['Eu', 'Ni', 'B']",12.0,-83.86293274,0.01687665297363239,0.0,
9885,Eu1Ni5,mp-22311,EuNi5,"['Eu', 'Ni']",6.0,-39.90494944,0.020556725820312316,0.0,
31180,As6Eu2Ni10,mp-16838,EuNi5As3,"['Eu', 'Ni', 'As']",18.0,-116.03324984,0.012013277253689836,0.0,
26405,Eu2Ni10P6,mp-582367,EuNi5P3,"['Eu', 'Ni', 'P']",18.0,-124.34019243,0.01021419008680624,0.0,
25090,Eu1Ni1P1,mp-1206697,EuNiP,"['Eu', 'Ni', 'P']",3.0,-24.39120825,0.0351888078206386,0.0,
14033,Eu4Np4O12,mp-1213363,EuNpO3,"['Eu', 'Np', 'O']",20.0,-212.45702947,0.011232248423826974,0.0,
4361,Eu1O1,mp-21394,EuO,"['Eu', 'O']",2.0,-20.79591801,0.0313328574877918,0.0,
31290,Eu2F2O2,mp-22338,EuOF,"['Eu', 'O', 'F']",6.0,-53.3501872,0.09476446446940123,0.0,
29434,Eu1P1,mp-20300,EuP,"['Eu', 'P']",2.0,-17.74823239,0.13553853130092186,0.0,
12973,Eu2P6,mp-1079534,EuP3,"['Eu', 'P']",8.0,-58.46173137,0.015326925155028981,0.0,
21024,Eu4P28,mp-1195922,EuP7,"['Eu', 'P']",32.0,-203.60480433,0.008319637026366955,0.0,
24992,Au2Eu2P2,mp-22783,EuPAu,"['Eu', 'P', 'Au']",6.0,-43.44617344,0.017177142934570178,0.0,
157,Eu4Ir4P4,mp-1095517,EuPIr,"['Eu', 'P', 'Ir']",12.0,-110.88490275,0.02392834138997557,0.0,
11008,Eu4O16P4,mp-3219,EuPO4,"['Eu', 'P', 'O']",24.0,-205.6206895,0.038869718505859296,0.0,
30286,Eu2P2Pd2,mp-20706,EuPPd,"['Eu', 'P', 'Pd']",6.0,-48.22001268,0.028094607044270248,0.0,
11971,Eu2P2Pt2,mp-672290,EuPPt,"['Eu', 'P', 'Pt']",6.0,-50.57409115,0.03420476886393331,0.0,
22730,Eu4P4S12,mp-20217,EuPS3,"['Eu', 'P', 'S']",20.0,-134.21785356,0.007546579812499843,0.0,
15438,Eu4P4Se12,mp-20742,EuPSe3,"['Eu', 'P', 'Se']",20.0,-123.23436001,0.006552183826171287,0.0,
20567,Eu2O8Pa2,mp-676409,EuPaO4,"['Eu', 'Pa', 'O']",12.0,-119.74563186,0.053134173613273106,0.0,
23364,Eu1Pb1,mp-20394,EuPb,"['Eu', 'Pb']",2.0,-15.01208973,0.047588824880371305,0.0,
25111,Eu1Pb3,mp-20309,EuPb3,"['Eu', 'Pb']",4.0,-22.83517118,0.015212904157714924,0.0,
19589,Eu2Pd2,mp-1018147,EuPd,"['Eu', 'Pd']",4.0,-33.67674893,0.03759987687499944,0.0,
13304,Eu2Pd4,mp-1854,EuPd2,"['Eu', 'Pd']",6.0,-45.5475093,0.021636150398762766,0.0,
11061,Eu2Pd6S8,mp-20961,EuPd3S4,"['Eu', 'Pd', 'S']",16.0,-98.15178495,0.00914932014160108,0.0,