,Composition,MaterialId,Reduced Formula,Elements,NSites,Corrected Energy,Decomposition Energy Per Atom All,Decomposition Energy Per Atom MP,Directory
641,Cs2Mo4O16Tb2,mp-1213293,CsTb(MoO4)2,"['Cs', 'Tb', 'Mo', 'O']",24.0,-170.92179573,0.02217254323242024,0.0,
23838,Br36Cs2Nb12Tb2,mp-1213369,CsTb(NbBr3)6,"['Cs', 'Tb', 'Nb', 'Br']",52.0,-250.86677292,0.0039505902553900185,-1.865174681370263e-14,
30296,Cs2O24P8Tb2,mp-17128,CsTb(PO3)4,"['Cs', 'Tb', 'P', 'O']",36.0,-261.98054159,3.2460351295782175e-06,-2.7533531010703882e-14,
2500,Cs2O16Tb2W4,mp-1213324,CsTb(WO4)2,"['Cs', 'Tb', 'W', 'O']",24.0,-176.85551712,0.0005735054166677855,0.0,
9409,Ag6Cs2Se10Tb4,mp-542164,CsTb2Ag3Se5,"['Cs', 'Tb', 'Ag', 'Se']",22.0,-97.02424471,0.0011126283717990404,0.0,
21462,Ag6Cs2Tb4Te10,mp-1190323,CsTb2Ag3Te5,"['Cs', 'Tb', 'Ag', 'Te']",22.0,-88.26809677,6.629949485148501e-05,3.552713678800501e-15,
20418,Cl28Cs4Tb8,mp-1213261,CsTb2Cl7,"['Cs', 'Tb', 'Cl']",40.0,-183.45415688,3.450878613708852e-05,-8.881784197001252e-15,
11116,Cs2Cu6Se10Tb4,mp-6182,CsTb2Cu3Se5,"['Cs', 'Tb', 'Cu', 'Se']",22.0,-104.36565367,0.003539422815186377,0.0,
10495,Cd2Cs2Se6Tb2,mp-11121,CsTbCdSe3,"['Cs', 'Tb', 'Cd', 'Se']",12.0,-50.17206911,0.0017265660693359663,0.0,
30969,Cd2Cs2Tb2Te6,mp-12495,CsTbCdTe3,"['Cs', 'Tb', 'Cd', 'Te']",12.0,-44.82244819,3.348566894878502e-06,0.0,
19430,Cs4F20Tb4,mp-28449,CsTbF5,"['Cs', 'Tb', 'F']",28.0,-147.14233753,0.08650362975742976,0.0,
29555,Cs2Mn2Se6Tb2,mp-1213063,CsTbMnSe3,"['Cs', 'Tb', 'Mn', 'Se']",12.0,-66.36837282,0.0002363419449897819,-5.329070518200751e-15,
26550,Cs4O28P8Tb4,mp-1213302,CsTbP2O7,"['Cs', 'Tb', 'P', 'O']",44.0,-323.16134411,0.0008869713547587921,0.0,
2834,Cs2S4Tb2,mp-972199,CsTbS2,"['Cs', 'Tb', 'S']",8.0,-42.16247241,9.398677490235485e-05,0.0,
4624,Cs4S16Si4Tb4,mp-1194142,CsTbSiS4,"['Cs', 'Tb', 'Si', 'S']",28.0,-150.34138259,0.0012754290890066855,0.0,
17176,Cs2Se6Tb2Zn2,mp-573710,CsTbZnSe3,"['Cs', 'Tb', 'Zn', 'Se']",12.0,-51.52380709,0.002703764025064892,0.0,
13958,Cs2Tb2Te6Zn2,mp-638078,CsTbZnTe3,"['Cs', 'Tb', 'Zn', 'Te']",12.0,-45.64732504,0.0009311093375652391,0.0,
14337,Br8Cs4Se16Tc12,mp-1198737,CsTc3(Se2Br)2,"['Cs', 'Tc', 'Se', 'Br']",40.0,-229.9582613,0.00028180062988258925,0.0,
23271,Cs4O16Tc4,mp-27250,CsTcO4,"['Cs', 'Tc', 'O']",24.0,-165.22884573,0.0029262887565115747,0.0,
14274,Cs4Te4,mp-8361,CsTe,"['Cs', 'Te']",8.0,-22.93498119,0.02124780921712288,0.0,
12454,Cs2Mo12Te14,mp-18193,CsTe7Mo6,"['Cs', 'Te', 'Mo']",28.0,-186.89656357,0.00016845805385035106,0.0,
4175,Au2Cs2Te2,mp-1541909,CsTeAu,"['Cs', 'Te', 'Au']",6.0,-18.91165517,0.0,0.0,
13287,Cs4F20Te4,mp-541628,CsTeF5,"['Cs', 'Te', 'F']",28.0,-122.170532,2.8542027065370235e-05,0.0,
12897,Cs4Se12Te4,mp-9462,CsTeSe3,"['Cs', 'Te', 'Se']",20.0,-67.49528143,0.012386935749618466,0.0,
23932,Cs2O24P6Th4,mp-1198898,CsTh2(PO4)3,"['Cs', 'Th', 'P', 'O']",36.0,-286.61769,9.897026909655438e-05,0.0,
9540,Cs2F26Th6,mp-1198377,CsTh3F13,"['Cs', 'Th', 'F']",34.0,-231.83781144,4.297479434711704e-05,0.0,
17556,Cs4P8S32Ti4,mp-645687,CsTi(PS4)2,"['Cs', 'Ti', 'P', 'S']",48.0,-244.63926982,0.004196598395182605,0.0,
27452,Cs1Cu2Te8Ti2,mp-1228812,CsTi2(CuTe4)2,"['Cs', 'Ti', 'Cu', 'Te']",13.0,-56.69920085,0.0012328950082638457,0.0,
28833,Cl14Cs2Ti4,mp-505663,CsTi2Cl7,"['Cs', 'Ti', 'Cl']",20.0,-93.51652649,7.626644238278857e-05,0.0,
337,Cs2F8O20P6Ti4,mp-1197745,CsTi2P3(O5F2)2,"['Cs', 'Ti', 'P', 'O', 'F']",40.0,-287.65490555,0.0010484366894534247,0.0,
17776,Cs1O19P5Ti3,mp-561121,CsTi3P5O19,"['Cs', 'Ti', 'P', 'O']",28.0,-216.80219512,0.0,0.0,
3900,Cs2O50P12Si4Ti6,mp-541318,CsTi3Si2P6O25,"['Cs', 'Ti', 'Si', 'P', 'O']",74.0,-571.08564386,0.0,0.0,
2716,Cs1Se8Ti5,mp-1105859,CsTi5Se8,"['Cs', 'Ti', 'Se']",14.0,-85.1748063,0.030056297127125653,0.0,
21140,Cs2O24Ti12,mp-867568,CsTi6O12,"['Cs', 'Ti', 'O']",38.0,-327.38451132,0.00022851969366755043,0.0,
885,Cs2F66Ti16,mp-1197107,CsTi8F33,"['Cs', 'Ti', 'F']",84.0,-534.24391803,0.0006624632310270329,0.0,
19574,Al2Cs2O8Ti2,mp-1225829,CsTiAlO4,"['Cs', 'Ti', 'Al', 'O']",14.0,-104.26550299,0.001563088604910945,0.0,
19238,As8Cs8O40Ti8,mp-541956,CsTiAsO5,"['Cs', 'Ti', 'As', 'O']",64.0,-440.79419838,2.7211896972190175e-05,0.0,
6557,Br6Cs2Ti2,mp-22962,CsTiBr3,"['Cs', 'Ti', 'Br']",10.0,-41.33442156,0.030825092196072212,0.0,
27096,Cs2Cu6Se8Ti2,mp-570706,CsTiCu3Se4,"['Cs', 'Ti', 'Cu', 'Se']",18.0,-83.52902961,0.0003480525368928511,0.0,
16906,Cs4F16Ti4,mp-504701,CsTiF4,"['Cs', 'Ti', 'F']",24.0,-142.00965129,0.0001515585953733023,-5.329070518200751e-15,
25466,Cs4O20Tl12,mp-1213568,CsTl3O5,"['Cs', 'Tl', 'O']",36.0,-160.43919479,0.0023304791948737247,0.0,
19618,Br16Cs4Tl4,mp-573702,CsTlBr4,"['Cs', 'Tl', 'Br']",24.0,-62.94731974,0.00044051457682314776,0.0,
12437,Cl6Cs2Tl2,mp-1112176,CsTlCl3,"['Cs', 'Tl', 'Cl']",10.0,-30.74985905,0.0058599293505854355,0.0,
15234,Cs2F6Tl2,mp-1078203,CsTlF3,"['Cs', 'Tl', 'F']",10.0,-40.3819502,0.005352355488281724,0.0,
27818,Cs4F16Tl4,mp-1541564,CsTlF4,"['Cs', 'Tl', 'F']",24.0,-96.3493648,0.0,-3.552713678800501e-15,
23849,Cs2O2Tl2,mp-1205877,CsTlO,"['Cs', 'Tl', 'O']",6.0,-22.02246137,0.0004975195711258706,0.0,
15496,Cs8S16Tl8,mp-1213394,CsTlS2,"['Cs', 'Tl', 'S']",32.0,-113.0191327,0.0,0.0,
26592,Cs2Mo4O16Tm2,mp-1213346,CsTm(MoO4)2,"['Cs', 'Tm', 'Mo', 'O']",24.0,-170.7407952,0.03420476644694048,0.0,
5740,Br36Cs2Nb12Tm2,mp-1213326,CsTm(NbBr3)6,"['Cs', 'Tm', 'Nb', 'Br']",52.0,-250.24628898,0.004958267624679991,0.0,
5573,Cs1O8Tm1W2,mp-1213213,CsTm(WO4)2,"['Cs', 'Tm', 'W', 'O']",12.0,-88.36153626,0.0006204829720051208,0.0,
29581,Cl28Cs4Tm8,mp-1213262,CsTm2Cl7,"['Cs', 'Tm', 'Cl']",40.0,-181.38065478,2.9943976572077702e-05,8.881784197001252e-15,
17443,Cs2Cu6Se10Tm4,mp-581749,CsTm2Cu3Se5,"['Cs', 'Tm', 'Cu', 'Se']",22.0,-103.41089365,0.010922008285711549,0.0,
9580,Cd2Cs2Te6Tm2,mp-12496,CsTmCdTe3,"['Cs', 'Tm', 'Cd', 'Te']",12.0,-44.18989061,5.3113085933809145e-06,0.0,
16667,Cs2Mn2Se6Tm2,mp-1213648,CsTmMnSe3,"['Cs', 'Tm', 'Mn', 'Se']",12.0,-65.92653082,0.0018729199479174952,0.0,
16617,Cs4O28P8Tm4,mp-1213300,CsTmP2O7,"['Cs', 'Tm', 'P', 'O']",44.0,-323.39365805,0.0,0.0,
18492,Cs2S4Tm2,mp-1078990,CsTmS2,"['Cs', 'Tm', 'S']",8.0,-41.78990611,3.153071411166053e-05,0.0,
14761,Cl8Cs4O12Se4Tm4,mp-556414,CsTmSeCl2O3,"['Cs', 'Tm', 'Se', 'Cl', 'O']",32.0,-174.80302611,0.00014556162597578748,0.0,
30121,Cs4S16Si4Tm4,mp-1194326,CsTmSiS4,"['Cs', 'Tm', 'Si', 'S']",28.0,-149.25278939,0.0,0.0,
27794,Cs2Se6Tm2Zn2,mp-505713,CsTmZnSe3,"['Cs', 'Tm', 'Zn', 'Se']",12.0,-51.10947679,0.0029110935091143375,0.0,
916,Cs2Te6Tm2Zn2,mp-1103187,CsTmZnTe3,"['Cs', 'Tm', 'Zn', 'Te']",12.0,-45.10453974,0.00043040161051388637,0.0,
29844,Cs2F18U4,mp-1225971,CsU2F9,"['Cs', 'U', 'F']",24.0,-164.2748938,0.04193627606913797,0.0,
10176,Cs2O12U4,mp-7322,CsU2O6,"['Cs', 'U', 'O']",18.0,-161.24339215,1.5987211554602254e-14,1.5987211554602254e-14,
3933,Cs2F50U12,mp-556690,CsU6F25,"['Cs', 'U', 'F']",64.0,-460.49582581,0.003330419790603223,0.0,
1120,Ag2Cs2S6U2,mp-13346,CsUAgS3,"['Cs', 'U', 'Ag', 'S']",12.0,-68.55713253,-5.329070518200751e-15,-5.329070518200751e-15,
24524,Ag2Cs2Se6U2,mp-510662,CsUAgSe3,"['Cs', 'U', 'Ag', 'Se']",12.0,-63.54320446,0.0,0.0,
25522,Au2Cs2Se6U2,mp-1104020,CsUAuSe3,"['Cs', 'U', 'Au', 'Se']",12.0,-64.05157088,0.0004676803694669829,-5.329070518200751e-15,
9911,Cr4Cs4O24U4,mp-572944,CsUCrO6,"['Cs', 'U', 'Cr', 'O']",36.0,-281.80216329,2.8823270399769285e-05,0.0,
21029,Cs2Cu2S6U2,mp-13348,CsUCuS3,"['Cs', 'U', 'Cu', 'S']",12.0,-72.01217785,0.002158183317057194,0.0,
678,Cs2Cu2Se6U2,mp-7151,CsUCuSe3,"['Cs', 'U', 'Cu', 'Se']",12.0,-66.49951189,0.0,0.0,
31103,Cs2Cu2Te6U2,mp-20219,CsUCuTe3,"['Cs', 'U', 'Cu', 'Te']",12.0,-60.21931961,0.006962799121907892,0.0,
14450,Cs1F6U1,mp-7489,CsUF6,"['Cs', 'U', 'F']",8.0,-51.29085138,4.143135131862152e-05,-6.217248937900877e-15,
18024,Cs2Ga2O20P4U2,mp-559852,CsUGa(PO5)2,"['Cs', 'U', 'Ga', 'P', 'O']",30.0,-225.59931408,0.00020381289319981732,2.842170943040401e-14,
21855,Cs2N6O22U2,mp-541035,CsUN3O11,"['Cs', 'U', 'N', 'O']",32.0,-223.1347192,0.00010201383056607227,0.0,
13619,Cs4Nb4O24U4,mp-541096,CsUNbO6,"['Cs', 'U', 'Nb', 'O']",36.0,-307.9382977,0.00019164781901004346,0.0,
22026,Cs4O44P12U4,mp-572741,CsUP3O11,"['Cs', 'U', 'P', 'O']",64.0,-487.72022154,6.421879638729422e-05,0.0,
12254,Cs2O12Sb2U2,mp-1225841,CsUSbO6,"['Cs', 'U', 'Sb', 'O']",18.0,-133.84865986,0.00024960277560737154,0.0,
7870,Cs8Te48U8,mp-1197456,CsUTe6,"['Cs', 'U', 'Te']",64.0,-283.31181282,0.018843614482857873,0.0,
4706,Cs2Te10Ti2U2,mp-617298,CsUTiTe5,"['Cs', 'U', 'Ti', 'Te']",16.0,-83.79646256,0.047560300896063445,-2.6645352591003757e-15,
8689,Cs4O24U4V4,mp-562513,CsUVO6,"['Cs', 'U', 'V', 'O']",36.0,-288.96016638,0.001130069359810193,0.0,
21722,Cs2Mo4O16V2,mp-561748,CsV(MoO4)2,"['Cs', 'V', 'Mo', 'O']",24.0,-168.44422684,-1.4210854715202004e-14,1.4210854715202004e-14,
8135,Cs4N8O32V4,mp-1200557,CsV(NO4)2,"['Cs', 'V', 'N', 'O']",48.0,-307.76577784,0.0008658598193358458,0.0,
1295,Cs4O32S8V4,mp-559316,CsV(SO4)2,"['Cs', 'V', 'S', 'O']",48.0,-307.80101158,3.772770345022991e-05,0.0,
3748,Cs2I6O26V4,mp-572728,CsV2I3O13,"['Cs', 'V', 'I', 'O']",38.0,-208.37469748,0.0006436775411176043,0.0,
19096,Cs2O32P10V4,mp-504996,CsV2P5O16,"['Cs', 'V', 'P', 'O']",48.0,-351.60610849,0.0,0.0,
20072,Cs4O32Sb4V8,mp-1196047,CsV2SbO8,"['Cs', 'V', 'Sb', 'O']",48.0,-323.59084517,0.0015472879215492341,0.0,
16074,Cs2O24Se4V6,mp-18545,CsV3(SeO6)2,"['Cs', 'V', 'Se', 'O']",36.0,-233.97385897,1.967135199620884e-05,0.0,
3031,B2Cs1H8O22P4V3,mp-1200471,CsV3B2P4(H4O11)2,"['Cs', 'V', 'B', 'P', 'H', 'O']",40.0,-271.79657967,1.7795847655044383e-05,0.0,
28487,Cs2O16V6,mp-651814,CsV3O8,"['Cs', 'V', 'O']",24.0,-171.30078241,4.578398274723838e-05,0.0,
9285,Br6Cs2V2,mp-23038,CsVBr3,"['Cs', 'V', 'Br']",10.0,-42.42902533,1.9534260742304355e-05,0.0,
22881,Cl6Cs2V2,mp-22977,CsVCl3,"['Cs', 'V', 'Cl']",10.0,-46.39229048,3.696762500027262e-05,0.0,
30494,Cs2Cu2F12V2,mp-1229021,CsVCuF6,"['Cs', 'V', 'Cu', 'F']",18.0,-91.8476837,0.0018166112505353382,0.0,
22625,Cs4F16V4,mp-1192215,CsVF4,"['Cs', 'V', 'F']",24.0,-133.40312997,0.00010144696940006526,0.0,
29044,Cs2F12Fe2V2,mp-1228886,CsVFeF6,"['Cs', 'V', 'Fe', 'F']",18.0,-100.69722503,-1.7763568394002505e-15,-2.220446049250313e-14,
20379,Cs2I6V2,mp-22991,CsVI3,"['Cs', 'V', 'I']",10.0,-38.25666899,0.004080659556154664,0.0,
4021,Cs2N4V2,mp-1029293,CsVN2,"['Cs', 'V', 'N']",8.0,-59.18756543,0.0002989348974606898,0.0,
4115,Cs2F12Ni2V2,mp-1228899,CsVNiF6,"['Cs', 'V', 'Ni', 'F']",18.0,-93.33878633,0.0005097817968753304,0.0,
2557,Cs4O12V4,mp-504651,CsVO3,"['Cs', 'V', 'O']",20.0,-132.61021813,0.0002694401796876633,0.0,
8153,Cs4F16O4V4,mp-1193015,CsVOF4,"['Cs', 'V', 'O', 'F']",28.0,-156.01368923,0.0006773935714283752,0.0,
21875,Cs4O28P8V4,mp-562901,CsVP2O7,"['Cs', 'V', 'P', 'O']",44.0,-315.93544162,4.02346235794937e-06,-1.4210854715202004e-14,
22509,Cs1P2S7V1,mp-12324,CsVP2S7,"['Cs', 'V', 'P', 'S']",11.0,-56.43610994,0.0023470374712344366,0.0,
14107,Cs4O20P4V4,mp-1198694,CsVPO5,"['Cs', 'V', 'P', 'O']",32.0,-224.94512375,0.0006746911621098306,0.0,
2452,Cs8O48S8V8,mp-1181965,CsVSO6,"['Cs', 'V', 'S', 'O']",72.0,-463.37313779,0.0005152608648124613,0.0,
15375,Cs4O20Se4V4,mp-1201217,CsVSeO5,"['Cs', 'V', 'Se', 'O']",32.0,-195.91093248,0.0006864972070310671,0.0,
25470,Cs2O12Te2V2,mp-1225864,CsVTeO6,"['Cs', 'V', 'Te', 'O']",18.0,-109.48907767,0.0003302865082464024,0.0,
236,Cs2O36P12V2Zn2,mp-1225904,CsVZn(PO3)6,"['Cs', 'V', 'Zn', 'P', 'O']",54.0,-378.74684081,4.602693866040397e-06,0.0,
18456,Cs2F12V2Zn2,mp-1225824,CsVZnF6,"['Cs', 'V', 'Zn', 'F']",18.0,-91.10902363,-1.7763568394002505e-15,0.0,
26019,Br28Cs4W12,mp-1226055,CsW3Br7,"['Cs', 'W', 'Br']",44.0,-237.47444619,1.186888316517809e-06,0.0,
12385,Cl28Cs4W12,mp-1213572,CsW3Cl7,"['Cs', 'W', 'Cl']",44.0,-253.6755993,0.0025464880770602605,0.0,
30933,Cl12Cs2W2,mp-30974,CsWCl6,"['Cs', 'W', 'Cl']",16.0,-68.73798764,8.534815307648103e-05,0.0,
1305,Cs8F56W8,mp-561687,CsWF7,"['Cs', 'W', 'F']",72.0,-367.2175242,0.0,-3.552713678800501e-15,
28677,Cs1Mo2O8Y1,mp-1213231,CsY(MoO4)2,"['Cs', 'Y', 'Mo', 'O']",12.0,-87.50893986,0.00012107510253756004,0.0,
7875,Br36Cs2Nb12Y2,mp-1213375,CsY(NbBr3)6,"['Cs', 'Y', 'Nb', 'Br']",52.0,-254.50951053,4.538137167564571e-05,-1.865174681370263e-14,
6055,Cs4O24Se8Y4,mp-1195090,CsY(SeO3)2,"['Cs', 'Y', 'Se', 'O']",40.0,-247.73817919,7.290672460857905e-05,0.0,
19573,Cs2O16W4Y2,mp-1213335,CsY(WO4)2,"['Cs', 'Y', 'W', 'O']",24.0,-180.33053604,0.0005837797054031313,0.0,
7042,C4Cs1I18Y10,mp-669309,CsY10(C2I9)2,"['Cs', 'Y', 'C', 'I']",33.0,-171.20205244,0.001494759897017417,0.0,
26541,Cl28Cs4Y8,mp-1213252,CsY2Cl7,"['Cs', 'Y', 'Cl']",40.0,-197.71444266,5.392983789054284e-05,0.0,
23340,Cs6Cu6Te24Y12,mp-1199735,CsY2CuTe4,"['Cs', 'Y', 'Cu', 'Te']",48.0,-236.42752443,0.0566371761816411,0.0,
27944,Cd2Cs2Se6Y2,mp-11116,CsYCdSe3,"['Cs', 'Y', 'Cd', 'Se']",12.0,-53.86512861,0.0016120013110354492,0.0,
5302,Cs2Hg2Se6Y2,mp-11123,CsYHgSe3,"['Cs', 'Y', 'Hg', 'Se']",12.0,-51.06785883,2.990362956367676e-06,0.0,
30664,Cs2Mn2Se6Y2,mp-1213646,CsYMnSe3,"['Cs', 'Y', 'Mn', 'Se']",12.0,-70.08171226,0.001538535218099213,0.0,
17546,Cs2O4Y2,mp-541044,CsYO2,"['Cs', 'Y', 'O']",8.0,-55.35389728,7.450076660209248e-05,0.0,
6956,Cs4O28P8Y4,mp-541412,CsYP2O7,"['Cs', 'Y', 'P', 'O']",44.0,-330.34411675,2.8252574574061384e-05,0.0,
19889,Cl8Cs4O12Se4Y4,mp-555160,CsYSeCl2O3,"['Cs', 'Y', 'Se', 'Cl', 'O']",32.0,-182.21728652,0.00020661097778340576,5.329070518200751e-15,
18263,Cs2Se6Y2Zn2,mp-574620,CsYZnSe3,"['Cs', 'Y', 'Zn', 'Se']",12.0,-55.23603009,0.0026726150789402325,-4.440892098500626e-15,
17446,Cs2Te6Y2Zn2,mp-1103744,CsYZnTe3,"['Cs', 'Y', 'Zn', 'Te']",12.0,-49.38877114,0.0009887600821940623,0.0,
24868,B18Cs6O42Zn12,mp-1195000,CsZn2B3O7,"['Cs', 'Zn', 'B', 'O']",78.0,-514.80478766,0.00016935141425022948,-1.2434497875801753e-14,
14104,Cs2H2O16P4Zn4,mp-699213,CsZn2P2HO8,"['Cs', 'Zn', 'P', 'H', 'O']",28.0,-169.9252801,0.001393526004464185,0.0,
11258,As3Cs1Zn4,mp-1084778,CsZn4As3,"['Cs', 'Zn', 'As']",8.0,-22.35485809,0.0011811641955565833,4.440892098500626e-16,
31474,Cs1P3Zn4,mp-1101093,CsZn4P3,"['Cs', 'Zn', 'P']",8.0,-24.61117529,0.0003896068469240177,0.0,
18216,B2Cs2O16P4Zn2,mp-560244,CsZnB(PO4)2,"['Cs', 'Zn', 'B', 'P', 'O']",26.0,-176.66210892,0.0004837727584066087,-6.217248937900877e-15,
7515,Co2Cs2F12Zn2,mp-1225874,CsZnCoF6,"['Cs', 'Zn', 'Co', 'F']",18.0,-78.0892548,0.018309593437500382,0.0,
28480,Cs2F12Fe2Zn2,mp-1225833,CsZnFeF6,"['Cs', 'Zn', 'Fe', 'F']",18.0,-84.15430517,0.0002796939246962893,0.0,
8240,Cs8O32P8Zn8,mp-557693,CsZnPO4,"['Cs', 'Zn', 'P', 'O']",56.0,-337.44391295,4.531231166282623e-05,0.0,
17082,Cs4N20O60Zr4,mp-555862,CsZr(NO3)5,"['Cs', 'Zr', 'N', 'O']",88.0,-579.07739582,1.835693714458131e-05,0.0,
20649,Cs2O24P6Zr4,mp-560091,CsZr2(PO4)3,"['Cs', 'Zr', 'P', 'O']",36.0,-285.24468748,2.1444240452694885e-05,0.0,
13751,Al4Cs4O64P16Zr8,mp-1019720,CsZr2Al(PO4)4,"['Cs', 'Zr', 'Al', 'P', 'O']",96.0,-750.61295331,4.2381902700228125e-05,3.019806626980426e-14,
12990,B2Cs2I28Zr12,mp-571410,CsZr6BI14,"['Cs', 'Zr', 'B', 'I']",44.0,-206.69927492,0.00019014075637446837,0.0,
6490,C4Cl60Cs4Zr24,mp-1213455,CsZr6CCl15,"['Cs', 'Zr', 'C', 'Cl']",92.0,-522.72805792,0.0005028361701979733,0.0,
6376,C2Cs2I28Zr12,mp-582176,CsZr6CI14,"['Cs', 'Zr', 'C', 'I']",44.0,-211.04800071,0.0,0.0,
10231,Cl28Cs2Mn2Zr12,mp-1213469,CsZr6MnCl14,"['Cs', 'Zr', 'Mn', 'Cl']",44.0,-247.97205168,0.0001618503568892038,0.0,
23134,Cs2I28Mn2Zr12,mp-570192,CsZr6MnI14,"['Cs', 'Zr', 'Mn', 'I']",44.0,-208.10246395,7.278809035859979e-05,8.881784197001252e-16,
8037,Cs2Cu2Se6Zr2,mp-7152,CsZrCuSe3,"['Cs', 'Zr', 'Cu', 'Se']",12.0,-61.51667012,0.00010243099934914568,0.0,
31614,Cs2Te10U2Zr2,mp-1189615,CsZrUTe5,"['Cs', 'Zr', 'U', 'Te']",16.0,-86.51308016,0.029352121413054988,0.0,
3100,Cu1,mp-30,Cu,['Cu'],1.0,-4.09920667,0.0006177585583495571,0.0,
4811,B12Cu6O24,mp-4870,Cu(BO2)2,"['Cu', 'B', 'O']",42.0,-303.3064136,0.00021482569754116554,-3.552713678800501e-15,
9797,Bi8Cu4O16,mp-505042,Cu(BiO2)2,"['Cu', 'Bi', 'O']",28.0,-156.33295651,3.632145507825868e-05,0.0,
2142,Cu2I4O12,mp-27234,Cu(IO3)2,"['Cu', 'I', 'O']",18.0,-80.29650477,8.881784197001252e-16,0.0,
3796,Cu2Ir4S8,mp-15065,Cu(IrS2)2,"['Cu', 'Ir', 'S']",14.0,-81.88317445,0.0,0.0,
20724,Cu12N24O72,mp-662543,Cu(NO3)2,"['Cu', 'N', 'O']",108.0,-642.75158977,0.006779297557869768,0.0,
11069,Cu4O24P8,mp-17224,Cu(PO3)2,"['Cu', 'P', 'O']",36.0,-242.3549897,0.0062221217773448245,0.0,
24652,Cu2Pt4S8,mp-28888,Cu(PtS2)2,"['Cu', 'Pt', 'S']",14.0,-70.10971133,0.003577743832310354,0.0,
12540,Cu2Rh4S8,mp-15613,Cu(RhS2)2,"['Cu', 'Rh', 'S']",14.0,-76.75879515,0.0,0.0,
27277,Cu2Rh4Se8,mp-15614,Cu(RhSe2)2,"['Cu', 'Rh', 'Se']",14.0,-70.96322011,0.00032585238978821707,0.0,
335,Cu2O12Sb4,mp-5831,Cu(SbO3)2,"['Cu', 'Sb', 'O']",18.0,-105.35552594,8.516777560707567e-05,0.0,
13257,As4Cu12S13,mp-504753,Cu12As4S13,"['Cu', 'As', 'S']",29.0,-127.53387041,0.019062900114513504,-4.440892098500626e-15,
24137,Cu12S13Sb4,mp-647164,Cu12Sb4S13,"['Cu', 'Sb', 'S']",29.0,-125.90721144,0.01941002296877148,0.0,
17439,Cu13I15,mp-684621,Cu13I15,"['Cu', 'I']",28.0,-79.90727648,0.047652167003751966,0.0,
7150,Cu30Si8,mp-14266,Cu15Si4,"['Cu', 'Si']",38.0,-169.2061142,0.0005350806743420478,0.0,
25060,Cu4O24S6,mp-768451,Cu2(SO4)3,"['Cu', 'S', 'O']",34.0,-193.20669254,0.0,0.0,
6689,Ag5Cu2N1O15Se4,mp-1225986,Cu2Ag5Se4NO15,"['Cu', 'Ag', 'Se', 'N', 'O']",27.0,-133.04419551,0.0011376970399306074,0.0,
13123,Ag1Cu2O4,mp-1225882,Cu2AgO4,"['Cu', 'Ag', 'O']",7.0,-33.20228338,0.004981947562779254,0.0,
19649,As36Cu8I8P12S36,mp-1200181,Cu2As9P3S9I2,"['Cu', 'As', 'P', 'S', 'I']",100.0,-444.68298255,0.0006736779179687957,0.0,
10089,As4Cu8O20,mp-1198036,Cu2AsO5,"['Cu', 'As', 'O']",32.0,-175.90480915,0.0009130418518061845,0.0,
4508,B3Cu2Ir4,mp-1225826,Cu2B3Ir4,"['Cu', 'B', 'Ir']",9.0,-65.35060293,0.011284529587674896,0.0,
4205,Cu2Ge1S3,mp-1072589,Cu2GeS3,"['Cu', 'Ge', 'S']",6.0,-27.15087596,0.0,0.0,
12609,Cu2Ge1Se3,mp-4728,Cu2GeSe3,"['Cu', 'Ge', 'Se']",6.0,-24.77971718,8.881784197001252e-16,8.881784197001252e-16,
11122,Cu2Ge1Te3,mp-12806,Cu2GeTe3,"['Cu', 'Ge', 'Te']",6.0,-22.83503598,0.0015521911838103364,0.0,
26540,Cu4H20N8O34,mp-1203834,Cu2H10N4O17,"['Cu', 'H', 'N', 'O']",66.0,-363.30852088,0.0018182070818788532,0.0,
10706,Cu4F12Hg4S2,mp-6820,Cu2Hg2SF6,"['Cu', 'Hg', 'S', 'F']",22.0,-76.84477365,0.0,0.0,
27331,Cu2Hg1I4,mp-23353,Cu2HgI4,"['Cu', 'Hg', 'I']",7.0,-16.20144267,0.0025449595944659897,0.0,
25547,Cu4Ni2O8Sn2,mp-1225946,Cu2NiSnO4,"['Cu', 'Ni', 'Sn', 'O']",16.0,-86.47558953,0.0,0.0,
30049,Cu4O2,mp-361,Cu2O,"['Cu', 'O']",6.0,-28.78578132,0.0003053573925777542,0.0,
4692,Cu16O24,mp-771359,Cu2O3,"['Cu', 'O']",40.0,-201.17553117,0.0,0.0,
15541,Cu4O14P4,mp-3638,Cu2P2O7,"['Cu', 'P', 'O']",22.0,-142.34163646,-1.2434497875801753e-14,0.0,
16598,Cu8P28,mp-28034,Cu2P7,"['Cu', 'P']",36.0,-188.00842301,0.0,0.0,
4600,Br8Cu8P32Se12,mp-683899,Cu2P8Se3Br2,"['Cu', 'P', 'Se', 'Br']",60.0,-271.63170392,0.0029136545559902416,4.440892098500626e-15,
18049,Cu8I8P32Se12,mp-570817,Cu2P8Se3I2,"['Cu', 'P', 'Se', 'I']",60.0,-268.27399507,7.131019400929972e-05,0.0,
24944,Cu8O16P4,mp-17281,Cu2PO4,"['Cu', 'P', 'O']",28.0,-171.39601096,4.485742048032648e-05,0.0,
17183,Cu8F4O16P4,mp-504476,Cu2PO4F,"['Cu', 'P', 'O', 'F']",32.0,-187.91967231,5.584501831013e-05,0.0,
4320,Cu8O20P4,mp-1203235,Cu2PO5,"['Cu', 'P', 'O']",32.0,-193.6049097,0.0,0.0,
8325,Cu8O36Pb4Se12,mp-579463,Cu2Pb(SeO3)3,"['Cu', 'Pb', 'Se', 'O']",60.0,-316.22362432,0.007604651022463216,0.0,
7806,Cu4O4Pb2,mp-29396,Cu2PbO2,"['Cu', 'Pb', 'O']",10.0,-50.6764191,2.2918491211498804e-05,0.0,
436,Cl4Cu4O12Pb2Se4,mp-1193833,Cu2PbSe2(ClO3)2,"['Cu', 'Pb', 'Se', 'Cl', 'O']",26.0,-125.27042133,0.0005267027148629921,0.0,
30031,Au1Cu2Pd1,mp-862256,Cu2PdAu,"['Cu', 'Pd', 'Au']",4.0,-17.11331472,0.014286256828612842,0.0,
13650,Cu4Sb2,mp-1825,Cu2Sb,"['Cu', 'Sb']",6.0,-24.51534125,0.010355210215251098,0.0,
15729,Cu4Hg2S8Si2,mp-1106310,Cu2SiHgS4,"['Cu', 'Si', 'Hg', 'S']",16.0,-67.07017745,0.006579658775353714,0.0,
11766,Cu4Hg2Se8Si2,mp-1212937,Cu2SiHgSe4,"['Cu', 'Si', 'Hg', 'Se']",16.0,-60.26114365,0.004426721337890349,0.0,