,Composition,MaterialId,Reduced Formula,Elements,NSites,Corrected Energy,Decomposition Energy Per Atom All,Decomposition Energy Per Atom MP,Directory
4363,Cs16Pb36,mp-574070,Cs4Pb9,"['Cs', 'Pb']",52.0,-157.94219707,5.071213937668517e-08,0.0,
16740,Br12Cs8Pb2,mp-23436,Cs4PbBr6,"['Cs', 'Pb', 'Br']",22.0,-69.16132834,0.0001484249529473125,0.0,
21116,Cl12Cs8Pb2,mp-1190733,Cs4PbCl6,"['Cs', 'Pb', 'Cl']",22.0,-75.62256945,0.0,0.0,
30996,Cs8I12Pb2,mp-1238804,Cs4PbI6,"['Cs', 'Pb', 'I']",22.0,-62.06420531,0.00039985851207413603,0.0,
8857,Cs16O16Pb4,mp-542099,Cs4PbO4,"['Cs', 'Pb', 'O']",36.0,-151.62652564,8.659517795184257e-05,0.0,
18435,Cs4I13Os1Pr6,mp-1192677,Cs4Pr6OsI13,"['Cs', 'Pr', 'Os', 'I']",24.0,-95.37755448,0.0,-7.105427357601002e-15,
7144,Cs8Fe4O10Rb4,mp-1213695,Cs4Rb2Fe2O5,"['Cs', 'Rb', 'Fe', 'O']",26.0,-115.51171667,0.0,0.0,
28237,C8Cs8N8Re12S18,mp-683929,Cs4Re6C4S9N4,"['Cs', 'Re', 'C', 'S', 'N']",54.0,-401.78969387,0.0025995637499995894,0.0,
6256,Cs8Re12S26,mp-652494,Cs4Re6S13,"['Cs', 'Re', 'S']",46.0,-299.36851784,0.0,0.0,
6209,Cs8Re12Se26,mp-650137,Cs4Re6Se13,"['Cs', 'Re', 'Se']",46.0,-278.02526007,0.0014909707948342898,0.0,
13002,Cl40Cs16O4Ru8,mp-679984,Cs4Ru2Cl10O,"['Cs', 'Ru', 'Cl', 'O']",68.0,-271.34600341,0.002074125519285097,0.0,
4747,Cs4O5Sb2,mp-553374,Cs4Sb2O5,"['Cs', 'Sb', 'O']",11.0,-53.01040722,0.0019854353888488774,0.0,
5116,Cs16O32Si12,mp-1019713,Cs4Si3O8,"['Cs', 'Si', 'O']",60.0,-383.50904157,0.0,0.0,
13831,Cs16O16Si4,mp-771255,Cs4SiO4,"['Cs', 'Si', 'O']",36.0,-183.71692293,0.000973606897786361,0.0,
28235,Cs32Se32Si8,mp-29834,Cs4SiSe4,"['Cs', 'Si', 'Se']",72.0,-262.13944142,4.1924179686958496e-05,0.0,
2635,Cs32Si8Te32,mp-574224,Cs4SiTe4,"['Cs', 'Si', 'Te']",72.0,-234.43225112,4.086952202708716e-05,-1.3322676295501878e-15,
10382,Cs8Hg4Sn42,mp-1226308,Cs4Sn21Hg2,"['Cs', 'Sn', 'Hg']",54.0,-186.85909575,0.00450905720124517,8.881784197001252e-16,
29837,Cs8Sn46,mp-2496,Cs4Sn23,"['Cs', 'Sn']",54.0,-200.59381062,0.0014953690162036182,0.0,
30618,Au7Cs4Sn2,mp-510696,Cs4Sn2Au7,"['Cs', 'Sn', 'Au']",13.0,-39.26553508,6.736520282446534e-05,0.0,
7184,Cs8Sn4Te14,mp-505014,Cs4Sn2Te7,"['Cs', 'Sn', 'Te']",26.0,-84.69784916,0.00020104596078684978,-1.3322676295501878e-15,
28538,Cs16O16Sn4,mp-17213,Cs4SnO4,"['Cs', 'Sn', 'O']",36.0,-161.52544483,0.0,0.0,
11347,Cs4Se9Sn3Sr1,mp-1181839,Cs4Sr(SnSe3)3,"['Cs', 'Sr', 'Sn', 'Se']",17.0,-65.13843846,0.003938333027049268,0.0,
31456,Cs8O72P24Sr6,mp-1203903,Cs4Sr3(PO3)12,"['Cs', 'Sr', 'P', 'O']",110.0,-758.40040916,0.001346946201704391,0.0,
16403,Cs8S26Tc12,mp-579058,Cs4Tc6S13,"['Cs', 'Tc', 'S']",46.0,-276.69635497,3.2748963993967095e-06,0.0,
19500,Cs16P20Se68Th8,mp-680198,Cs4Th2P5Se17,"['Cs', 'Th', 'P', 'Se']",112.0,-510.56996704,0.0027966068903459984,-4.440892098500626e-15,
25714,Cs8S28Ti6,mp-542011,Cs4Ti3S14,"['Cs', 'Ti', 'S']",42.0,-213.20329758,0.00015718943173315125,-8.881784197001252e-16,
17940,Cl24Cs8Sb2Tl2,mp-650007,Cs4TlSbCl12,"['Cs', 'Tl', 'Sb', 'Cl']",36.0,-112.44053576,0.0005518817616039229,0.0,
8385,Cs8Ge16O40U2,mp-1198094,Cs4U(Ge2O5)4,"['Cs', 'U', 'Ge', 'O']",66.0,-427.06723507,0.0,0.0,
8678,Cs8O26U4V4,mp-572715,Cs4U2V2O13,"['Cs', 'U', 'V', 'O']",42.0,-314.76338257,0.0,1.4210854715202004e-14,
13215,Cs4Mo3O20U3,mp-562961,Cs4U3Mo3O20,"['Cs', 'U', 'Mo', 'O']",30.0,-228.60454554,8.649062630183835e-05,0.0,
602,Cs4O17Si4U3,mp-1192638,Cs4U3Si4O17,"['Cs', 'U', 'Si', 'O']",28.0,-222.83149491,0.0,0.0,
5064,Cs16O68U20,mp-4393,Cs4U5O17,"['Cs', 'U', 'O']",104.0,-877.29618354,1.8419048979367858e-05,-7.105427357601002e-15,
10903,C6Cs8O22U2,mp-573096,Cs4UC3O11,"['Cs', 'U', 'C', 'O']",38.0,-272.20107661,0.0,0.0,
18072,Cs8F20Zn6,mp-17951,Cs4Zn3F10,"['Cs', 'Zn', 'F']",34.0,-139.16646483,0.0,0.0,
18967,Cs16O12Zn4,mp-1019612,Cs4ZnO3,"['Cs', 'Zn', 'O']",32.0,-116.00475012,0.00018115622314462954,0.0,
6833,Cs8S28Zr6,mp-680246,Cs4Zr3S14,"['Cs', 'Zr', 'S']",42.0,-221.6198711,0.000281961928012997,0.0,
22054,Cs8Se28Zr6,mp-768674,Cs4Zr3Se14,"['Cs', 'Zr', 'Se']",42.0,-200.58401993,0.0002866086932655776,0.0,
18606,Cs16Te64Zr12,mp-667336,Cs4Zr3Te16,"['Cs', 'Zr', 'Te']",92.0,-386.33527292,0.00018198857761486664,-1.7763568394002505e-15,
15738,B2Br34Cs8Zr12,mp-1203593,Cs4Zr6BBr17,"['Cs', 'Zr', 'B', 'Br']",56.0,-265.94338883,0.00012219391880563535,4.440892098500626e-15,
5817,Cs16O16Zr4,mp-28543,Cs4ZrO4,"['Cs', 'Zr', 'O']",36.0,-198.72830319,2.2553397352353954e-05,0.0,
29573,Cs10O32S8,mp-1196118,Cs5(SO4)4,"['Cs', 'S', 'O']",50.0,-278.22092443,0.03590812989975234,0.0,
17495,As2Cs10P8Se24,mp-1199840,Cs5As(PSe3)4,"['Cs', 'As', 'P', 'Se']",44.0,-173.16431179,0.0007805753293679274,0.0,
105,As20Cs20Se36,mp-1197848,Cs5As5Se9,"['Cs', 'As', 'Se']",76.0,-286.31440668,6.853039782050985e-05,0.0,
21408,Bi2Cs10Mo8O32,mp-644925,Cs5Bi(MoO4)4,"['Cs', 'Bi', 'Mo', 'O']",52.0,-325.15743195,0.00014640800030107926,0.0,
18044,Ca2Cs10F30Ni8,mp-556893,Cs5CaNi4F15,"['Cs', 'Ca', 'Ni', 'F']",50.0,-224.31888193,0.00012237116562463513,0.0,
22810,Cs20Fe4O16,mp-1201412,Cs5FeO4,"['Cs', 'Fe', 'O']",40.0,-169.19043333,0.0,0.0,
12252,Cs10Ga6Se14,mp-1193337,Cs5Ga3Se7,"['Cs', 'Ga', 'Se']",30.0,-107.10317112,0.00010105869530585565,-1.7763568394002505e-15,
8749,As12Cs20Ge4,mp-616141,Cs5GeAs3,"['Cs', 'Ge', 'As']",36.0,-105.91913273,0.0053292763262731135,0.0,
20798,Cs5Hg19,mp-542239,Cs5Hg19,"['Cs', 'Hg']",24.0,-15.56930887,1.6386601562445868e-05,0.0,
6656,As32Cs40In24,mp-582182,Cs5In3As4,"['Cs', 'In', 'As']",96.0,-291.15344256,1.1760137530458792e-05,-8.881784197001252e-16,
20269,Cs10Mo42Se46,mp-581739,Cs5Mo21Se23,"['Cs', 'Mo', 'Se']",98.0,-692.34300074,0.001950723132576826,0.0,
11226,Cs10H12Mo16O64P2,mp-1199240,Cs5Mo8P(H3O16)2,"['Cs', 'Mo', 'P', 'H', 'O']",104.0,-664.3871075,0.0017352409293529547,0.0,
18932,Cs10N20Na2W8,mp-1203906,Cs5Na(W2N5)2,"['Cs', 'Na', 'W', 'N']",40.0,-301.64714672,0.0001360597832018584,0.0,
12519,Br9Cs5Nb2S4,mp-556239,Cs5Nb2S4Br9,"['Cs', 'Nb', 'S', 'Br']",20.0,-82.58714102,0.0,0.0,
23559,Cl9Cs5Nb2S4,mp-621112,Cs5Nb2S4Cl9,"['Cs', 'Nb', 'S', 'Cl']",20.0,-88.02185203,0.0013004588027341057,0.0,
3704,Cl14Cs10Re12S16,mp-1228296,Cs5Re6S8Cl7,"['Cs', 'Re', 'S', 'Cl']",52.0,-310.69797334,0.0,0.0,
6519,Ag2Cs10O18Si6,mp-554842,Cs5Si3AgO9,"['Cs', 'Si', 'Ag', 'O']",36.0,-214.06603624,7.632487630182538e-05,0.0,
21742,As12Cs20Si4,mp-616140,Cs5SiAs3,"['Cs', 'Si', 'As']",36.0,-109.545467,0.0011960240207247175,0.0,
25057,Br14Cs10S16Tc12,mp-1182756,Cs5Tc6S8Br7,"['Cs', 'Tc', 'S', 'Br']",52.0,-280.05855938,0.00023339740234362694,-5.329070518200751e-15,
23166,Cs20P12S48Th4,mp-1197467,Cs5Th(PS4)3,"['Cs', 'Th', 'P', 'S']",84.0,-398.34540935,0.0006637698288685101,0.0,
21475,Ag2Cs10Se54Ti12,mp-16000,Cs5Ti6AgSe27,"['Cs', 'Ti', 'Ag', 'Se']",78.0,-364.06640406,3.633846152872877e-06,0.0,
16089,Cd2Cs5Tl11,mp-966740,Cs5Tl11Cd2,"['Cs', 'Tl', 'Cd']",18.0,-34.43758008,0.0007960017540149522,0.0,
18091,Cl8Cs5I1S4U2,mp-1105330,Cs5U2S4ICl8,"['Cs', 'U', 'S', 'I', 'Cl']",20.0,-93.01745957,9.259156836272098e-05,0.0,
18464,Br8Cs12O2,mp-1178399,Cs6Br4O,"['Cs', 'Br', 'O']",22.0,-68.35837983,0.00023301798117891792,0.0,
31514,Cl8Cs12O2,mp-29983,Cs6Cl4O,"['Cs', 'Cl', 'O']",22.0,-72.4603826,0.0,0.0,
14019,Co4Cs12O14,mp-773199,Cs6Co2O7,"['Cs', 'Co', 'O']",30.0,-136.57896046,0.0003652584296887085,8.881784197001252e-16,
9001,Cr4Cs12O14,mp-1193081,Cs6Cr2O7,"['Cs', 'Cr', 'O']",30.0,-156.89886432,0.0,0.0,
21651,Cl1Cs6Dy21S34,mp-1197810,Cs6Dy21S34Cl,"['Cs', 'Dy', 'S', 'Cl']",62.0,-370.33378879,0.0,1.7763568394002505e-15,
16197,Cl1Cs6Dy21Te34,mp-1203042,Cs6Dy21Te34Cl,"['Cs', 'Dy', 'Te', 'Cl']",62.0,-300.03005932,0.0,-8.881784197001252e-15,
15198,Cs12Fe4O10,mp-505147,Cs6Fe2O5,"['Cs', 'Fe', 'O']",26.0,-114.82447041,0.0,0.0,
31039,Cs12Ga2Sb6,mp-9697,Cs6GaSb3,"['Cs', 'Ga', 'Sb']",20.0,-49.61061867,0.0,0.0,
6849,Cs12Ge4O14,mp-1178450,Cs6Ge2O7,"['Cs', 'Ge', 'O']",30.0,-147.56822632,0.0,0.0,
26443,Cl1Cs6Ho21S34,mp-1199243,Cs6Ho21S34Cl,"['Cs', 'Ho', 'S', 'Cl']",62.0,-369.95349724,7.329851688453459e-05,0.0,
30591,Cl1Cs6Ho21Te34,mp-1201961,Cs6Ho21Te34Cl,"['Cs', 'Ho', 'Te', 'Cl']",62.0,-298.98725295,-8.881784197001252e-15,0.0,
18886,As6Cs12In2,mp-22506,Cs6InAs3,"['Cs', 'In', 'As']",20.0,-51.39278696,4.220107226560188e-05,0.0,
21991,Al2Cs12K6Sb8,mp-17120,Cs6K3AlSb4,"['Cs', 'K', 'Al', 'Sb']",28.0,-69.69894611,3.909249457478836e-08,0.0,
17318,Cs12Ga2K6Sb8,mp-541811,Cs6K3GaSb4,"['Cs', 'K', 'Ga', 'Sb']",28.0,-68.28968272,3.3546045619115006e-05,0.0,
26585,Cs6H36Na2Nb6O37,mp-557127,Cs6Na2Nb6H36O37,"['Cs', 'Na', 'Nb', 'H', 'O']",87.0,-509.46394741,0.001683580865660339,0.0,
569,Cs12O14Si4,mp-18315,Cs6Si2O7,"['Cs', 'Si', 'O']",30.0,-163.73665366,0.0,0.0,
31126,Cs12O14Ti4,mp-770128,Cs6Ti2O7,"['Cs', 'Ti', 'O']",30.0,-176.77693464,0.00010404634244753908,0.0,
19604,Cs24Cu48S60U8,mp-1199290,Cs6U2(Cu4S5)3,"['Cs', 'U', 'Cu', 'S']",140.0,-675.55276498,0.00044746554464314414,0.0,
31037,As4Cs6O28U5,mp-1195078,Cs6U5(AsO7)4,"['Cs', 'U', 'As', 'O']",43.0,-320.19128793,0.00039007789063294496,-7.105427357601002e-15,
29712,Cs14Fe8S16,mp-1195066,Cs7(FeS2)4,"['Cs', 'Fe', 'S']",38.0,-178.41898193,-1.7763568394002505e-15,0.0,
2722,Bi24Cs28In16,mp-581533,Cs7(In2Bi3)2,"['Cs', 'In', 'Bi']",68.0,-185.28976449,0.0,0.0,
930,Au5Cs7O2,mp-510075,Cs7Au5O2,"['Cs', 'Au', 'O']",14.0,-41.05740705,0.0223042413418586,0.0,
20566,Co8Cs14F30,mp-573016,Cs7Co4F15,"['Cs', 'Co', 'F']",52.0,-239.68971903,0.0,0.0,
15867,Cs14Cu12F38,mp-573073,Cs7Cu6F19,"['Cs', 'Cu', 'F']",64.0,-268.42510652,0.000951338554687986,0.0,
11916,Cs14F30Fe8,mp-562028,Cs7Fe4F15,"['Cs', 'Fe', 'F']",52.0,-251.33712729,0.00040449283954302473,0.0,
26151,As4Cs28Mo32O120,mp-1204347,Cs7Mo8AsO30,"['Cs', 'Mo', 'As', 'O']",184.0,-1186.58308965,0.003107928624157097,0.0,
935,As10Cs14In6Nb2,mp-631378,Cs7NbIn3As5,"['Cs', 'Nb', 'In', 'As']",32.0,-109.99131408,0.0013550474420167546,0.0,
5439,Cs14F30Ni8,mp-563023,Cs7Ni4F15,"['Cs', 'Ni', 'F']",52.0,-221.28921286,6.73082812499004e-05,0.0,
4886,Cl24Cs14Np6O12,mp-585476,Cs7Np3(Cl2O)6,"['Cs', 'Np', 'Cl', 'O']",56.0,-316.52576412,0.0,0.0,
26374,Cs16Re24S54,mp-1229160,Cs8(Re4S9)3,"['Cs', 'Re', 'S']",94.0,-608.07638585,0.0,2.398081733190338e-14,
24083,Cs16Ga22,mp-1200207,Cs8Ga11,"['Cs', 'Ga']",38.0,-86.33092911,0.0049011751865748465,0.0,
28061,Cl2Cs16Ga22,mp-1202213,Cs8Ga11Cl,"['Cs', 'Ga', 'Cl']",40.0,-98.27817802,0.00018849078417959575,0.0,
7959,Cs16In4O14,mp-1196865,Cs8In2O7,"['Cs', 'In', 'O']",34.0,-137.7079353,5.0041727940985936e-05,0.0,
1406,Cs8O19Ta6,mp-542069,Cs8Ta6O19,"['Cs', 'Ta', 'O']",33.0,-256.20875334,2.11464204546985e-05,0.0,
20546,Cs8O1Tl8,mp-561017,Cs8Tl8O,"['Cs', 'Tl', 'O']",17.0,-35.71066523,0.00016121492876886023,0.0,
25345,Cs8Mo6O24Zr1,mp-1197180,Cs8Zr(MoO4)6,"['Cs', 'Zr', 'Mo', 'O']",39.0,-253.6443123,0.0007477390024037689,0.0,
12173,As48Cs72Nb16,mp-1198953,Cs9(NbAs3)2,"['Cs', 'Nb', 'As']",136.0,-509.13759474,0.0008725100258519802,8.881784197001252e-16,
24498,Al2Cs18O8,mp-866492,Cs9AlO4,"['Cs', 'Al', 'O']",28.0,-95.8614578,0.01641581160365524,0.0,
20893,Cs36Fe8Se28,mp-1201016,Cs9Fe2Se7,"['Cs', 'Fe', 'Se']",72.0,-264.60433737,0.0,-5.329070518200751e-15,
12040,Ac1Cs1Te2,mp-863760,CsAcTe2,"['Cs', 'Ac', 'Te']",4.0,-16.0102497,0.217162911074829,0.0,
7041,Ag2Cs2N4O12,mp-558217,CsAg(NO3)2,"['Cs', 'Ag', 'N', 'O']",20.0,-113.1865008,0.0011979672021480425,0.0,
20128,Ag8B60Cs4O96,mp-679997,CsAg2(B5O8)3,"['Cs', 'Ag', 'B', 'O']",168.0,-1282.67198285,0.00041222889689152,-2.842170943040401e-14,
10755,Ag8As4Cs4S12,mp-866615,CsAg2AsS3,"['Cs', 'Ag', 'As', 'S']",28.0,-106.89569648,0.00056258037388357,0.0,
8019,Ag6Cs2S4,mp-561902,CsAg3S2,"['Cs', 'Ag', 'S']",12.0,-39.91505539,0.07684166966878259,0.0,
19521,Ag6Cs2Se4,mp-16234,CsAg3Se2,"['Cs', 'Ag', 'Se']",12.0,-37.95798217,0.035971275974120864,0.0,
24098,Ag6Cs2Te4,mp-1213692,CsAg3Te2,"['Cs', 'Ag', 'Te']",12.0,-36.15041997,0.004105324867349935,0.0,
27018,Ag20Cs4Se12,mp-10480,CsAg5Se3,"['Cs', 'Ag', 'Se']",36.0,-113.72405837,0.01592560096896678,0.0,
10001,Ag20Cs4Te12,mp-9206,CsAg5Te3,"['Cs', 'Ag', 'Te']",36.0,-108.5361069,0.0,0.0,
732,Ag28Cs4S16,mp-1198931,CsAg7S4,"['Cs', 'Ag', 'S']",48.0,-159.72937276,0.03737925608439152,0.0,
13460,Ag1Br3Cs1,mp-1399321,CsAgBr3,"['Cs', 'Ag', 'Br']",5.0,-13.245084,0.005988320849606321,-2.6645352591003757e-15,
31639,Ag2Cl4Cs2,mp-567558,CsAgCl2,"['Cs', 'Ag', 'Cl']",8.0,-24.62187062,0.004031746001587511,0.0,
16767,Ag2Cl6Cs2,mp-28610,CsAgCl3,"['Cs', 'Ag', 'Cl']",10.0,-29.35261532,1.3928815429053998e-05,0.0,
11444,Ag2Cs2F6,mp-561920,CsAgF3,"['Cs', 'Ag', 'F']",10.0,-37.47927805,0.0,0.0,
19134,Ag4Cs4O4,mp-8666,CsAgO,"['Cs', 'Ag', 'O']",12.0,-43.92468375,0.00012397481282588885,0.0,
5150,Ag2Cs2O4,mp-1096933,CsAgO2,"['Cs', 'Ag', 'O']",8.0,-32.59366334,0.0,0.0,
20914,Ag4Cs4P4Se12,mp-865980,CsAgPSe3,"['Cs', 'Ag', 'P', 'Se']",24.0,-90.92396945,0.0004354058105464631,-8.881784197001252e-16,
21873,Ag4Cs4Se16,mp-18105,CsAgSe4,"['Cs', 'Ag', 'Se']",24.0,-80.49428981,0.0,0.0,
27046,Al2Cs2H16N8,mp-634446,CsAl(H2N)4,"['Cs', 'Al', 'H', 'N']",28.0,-144.12981024,0.007600396353246275,-9.769962616701378e-15,
30127,Al1Cs1Mo2O8,mp-505784,CsAl(MoO4)2,"['Cs', 'Al', 'Mo', 'O']",12.0,-82.64829959,0.0003307826611322895,0.0,
15681,Al8Cs8O48Si16,mp-562920,CsAl(SiO3)2,"['Cs', 'Al', 'Si', 'O']",80.0,-587.87254184,4.951853514789661e-06,1.4210854715202004e-14,
16704,Al6Cs2O40P12,mp-558602,CsAl3(P3O10)2,"['Cs', 'Al', 'P', 'O']",60.0,-435.45141428,6.073856249955156e-05,0.0,
28339,Ag4Al4Cs4F24,mp-561999,CsAlAgF6,"['Cs', 'Al', 'Ag', 'F']",36.0,-169.57461874,0.00010071574544312512,0.0,
9617,Al4B4Cs4H4O36P8,mp-542129,CsAlBP2HO9,"['Cs', 'Al', 'B', 'P', 'H', 'O']",60.0,-421.42807202,1.5136743488852744e-05,0.0,
24297,Al4Br16Cs4,mp-29103,CsAlBr4,"['Cs', 'Al', 'Br']",24.0,-79.7785742,9.713000488797974e-06,0.0,
6015,Al4Cl16Cs4,mp-27260,CsAlCl4,"['Cs', 'Al', 'Cl']",24.0,-91.50882207,0.0,0.0,
17010,Al4Cs4Cu4F24,mp-510370,CsAlCuF6,"['Cs', 'Al', 'Cu', 'F']",36.0,-179.39428255,0.00047477332356749,0.0,
2418,Al12Cs12F48,mp-572702,CsAlF4,"['Cs', 'Al', 'F']",72.0,-387.55419565,2.5214897947378745e-06,-5.329070518200751e-15,
22596,Al4Cs4H96O80S8,mp-1198095,CsAlH24(SO10)2,"['Cs', 'Al', 'H', 'S', 'O']",192.0,-1015.92612734,0.003393074563802223,0.0,
8915,Al4Cs4H96O80Se8,mp-24523,CsAlH24(SeO10)2,"['Cs', 'Al', 'H', 'Se', 'O']",192.0,-986.02240861,0.0010637338427734733,0.0,
24130,Al2Cs2F8H8O4,mp-1191186,CsAlH4(OF2)2,"['Cs', 'Al', 'H', 'O', 'F']",24.0,-124.22681457,0.0004510856249995143,0.0,
14161,Al2Cs2F12Ni2,mp-1225930,CsAlNiF6,"['Cs', 'Al', 'Ni', 'F']",18.0,-91.37426488,0.00021670941189189108,-2.042810365310288e-14,
9157,Al2Cs2O4,mp-14069,CsAlO2,"['Cs', 'Al', 'O']",8.0,-49.1241885,0.0,0.0,
16637,Al4Cs4O16Si4,mp-1192933,CsAlSiO4,"['Cs', 'Al', 'Si', 'O']",28.0,-197.71468517,0.00012734587471996406,0.0,
24145,Al4Cs4Te12,mp-1189272,CsAlTe3,"['Cs', 'Al', 'Te']",20.0,-69.38139121,0.0059786826289993655,-1.7763568394002505e-15,
10753,Al4Cs4F24Zn4,mp-1213699,CsAlZnF6,"['Cs', 'Al', 'Zn', 'F']",36.0,-178.17693467,9.12312261283077e-05,0.0,
10976,As2Cs2H4O8,mp-1185571,CsAs(HO2)2,"['Cs', 'As', 'H', 'O']",16.0,-86.26598193,0.0011909029345709143,0.0,
5148,As16Cs8Se24,mp-645172,CsAs2Se3,"['Cs', 'As', 'Se']",48.0,-188.29415964,0.000621206230453808,-3.552713678800501e-15,
11901,As6Cs2O16,mp-554229,CsAs3O8,"['Cs', 'As', 'O']",24.0,-140.43981117,8.508247558580706e-05,0.0,
28497,As4Cs1F13,mp-30927,CsAs4F13,"['Cs', 'As', 'F']",18.0,-84.68581551,9.806208007834272e-05,0.0,
103,As2Cs2F8,mp-5707,CsAsF4,"['Cs', 'As', 'F']",12.0,-55.39620988,6.476504557717533e-05,0.0,
7214,As1Cs1F6,mp-9820,CsAsF6,"['Cs', 'As', 'F']",8.0,-36.41894361,1.7775678711196008e-05,0.0,
7462,As4Cs4O12,mp-776093,CsAsO3,"['Cs', 'As', 'O']",20.0,-111.21705029,0.007771765285150778,0.0,
29149,As4Cs4F16O4,mp-562403,CsAsOF4,"['Cs', 'As', 'O', 'F']",28.0,-135.03367004,3.125886021138058e-05,0.0,
11688,As8Cs8Se16,mp-581864,CsAsSe2,"['Cs', 'As', 'Se']",32.0,-120.5741137,2.050998535185755e-05,0.0,
24768,Au1Cs1,mp-2667,CsAu,"['Cs', 'Au']",2.0,-4.7838449,0.026794253867482354,0.0,
18351,Au2Cs2I8O24,mp-1200560,CsAu(IO3)4,"['Cs', 'Au', 'I', 'O']",36.0,-155.85882,0.0009781750488278007,0.0,
17775,Au4Cs4O32S8,mp-555376,CsAu(SO4)2,"['Cs', 'Au', 'S', 'O']",48.0,-267.25694675,0.0014461879069012085,0.0,
20821,Au4Cs2F14,mp-554737,CsAu2F7,"['Cs', 'Au', 'F']",20.0,-70.76924393,0.00010908645898410896,0.0,
29823,Au3Cs1S2,mp-9384,CsAu3S2,"['Cs', 'Au', 'S']",6.0,-21.98999052,0.0,0.0,
1468,Au3Cs1Se2,mp-9386,CsAu3Se2,"['Cs', 'Au', 'Se']",6.0,-20.59049369,0.0,0.0,
22140,Au2Br6Cs2,mp-569548,CsAuBr3,"['Cs', 'Au', 'Br']",10.0,-27.16963019,0.00013602732568385179,0.0,
1203,Au2Cl6Cs2,mp-23484,CsAuCl3,"['Cs', 'Au', 'Cl']",10.0,-29.8858054,0.00042683915039054554,0.0,
5833,Au2Cl8Cs2,mp-1095499,CsAuCl4,"['Cs', 'Au', 'Cl']",12.0,-34.52835846,0.0017667363045248408,0.0,
21798,Au2Cs2F8,mp-572767,CsAuF4,"['Cs', 'Au', 'F']",12.0,-44.61987606,0.01685269232666009,0.0,
31596,Au2Cs2I6,mp-28453,CsAuI3,"['Cs', 'Au', 'I']",10.0,-24.69288998,0.0,0.0,
14724,Au4Cs4O4,mp-9986,CsAuO,"['Cs', 'Au', 'O']",12.0,-46.50744776,0.0,0.0,
9520,Au2Cs2O4,mp-997024,CsAuO2,"['Cs', 'Au', 'O']",8.0,-34.48776019,3.2809985350823467e-06,0.0,
27722,Au2Cs2S2,mp-1077383,CsAuS,"['Cs', 'Au', 'S']",6.0,-21.27147556,0.005365337880045562,0.0,
1704,Au2Cs2Se2,mp-574599,CsAuSe,"['Cs', 'Au', 'Se']",6.0,-19.95197556,0.0007828920996062472,0.0,
15963,Au2Cs2Se6,mp-567913,CsAuSe3,"['Cs', 'Au', 'Se']",10.0,-34.2349255,0.0007335211669916575,0.0,
8917,B16Cs8H40O48,mp-863006,CsB2H5O6,"['Cs', 'B', 'H', 'O']",112.0,-674.6499304,0.0023328270647313687,0.0,
16335,B8Cs4H4O36P8,mp-1198124,CsB2P2HO9,"['Cs', 'B', 'P', 'H', 'O']",60.0,-424.81684695,0.0005688390820308697,0.0,
5957,B12Cs4O20,mp-3977,CsB3O5,"['Cs', 'B', 'O']",36.0,-270.16017795,0.0,-7.105427357601002e-15,
26538,B20Cs4H32O48,mp-23742,CsB5(H2O3)4,"['Cs', 'B', 'H', 'O']",104.0,-671.55477014,3.689224610070596e-05,6.217248937900877e-15,
906,B40Cs8O64,mp-581194,CsB5O8,"['Cs', 'B', 'O']",112.0,-864.55883544,0.00010099582726041945,-2.842170943040401e-14,
23844,B36Cs4O56,mp-680683,CsB9O14,"['Cs', 'B', 'O']",96.0,-754.31180927,0.0010783315787765702,0.0,
17681,B4Cs4F16,mp-4057,CsBF4,"['Cs', 'B', 'F']",24.0,-133.12385521,0.0,0.0,
31675,B1Cs1H4,mp-1225884,CsBH4,"['Cs', 'B', 'H']",6.0,-23.51269052,0.0008892392000321436,0.0,
12250,B6Cs6O12,mp-561725,CsBO2,"['Cs', 'B', 'O']",24.0,-159.111426,1.145467122043442e-06,0.0,
25153,B2Cs2S4,mp-1228848,CsBS2,"['Cs', 'B', 'S']",8.0,-38.45840323,0.04865516774251244,0.0,
16379,B4Cs4O44S12,mp-1019717,CsBS3O11,"['Cs', 'B', 'S', 'O']",64.0,-396.57852462,0.00036468565551750487,0.0,
7072,B4Cs4Se12,mp-573358,CsBSe3,"['Cs', 'B', 'Se']",20.0,-83.71645689,9.03146796868981e-05,-8.881784197001252e-16,
26730,Ba8Br20Cs4,mp-541722,CsBa2Br5,"['Cs', 'Ba', 'Br']",32.0,-119.95185698,0.00027876899658174636,0.0,
304,Ba2Cr2Cs1F11,mp-865412,CsBa2Cr2F11,"['Cs', 'Ba', 'Cr', 'F']",16.0,-92.46336321,0.0003353583044436448,0.0,
25752,Ba2Cs1Nb3O10,mp-505814,CsBa2Nb3O10,"['Cs', 'Ba', 'Nb', 'O']",16.0,-127.75147491,8.602426758486104e-06,0.0,
21558,Ba8Cl4Cs4S16Sn4,mp-1194731,CsBa2SnS4Cl,"['Cs', 'Ba', 'Sn', 'S', 'Cl']",36.0,-164.20652394,0.00019077854926230486,-8.881784197001252e-15,
7255,Ba4Cr12Cs4F48,mp-557433,CsBaCr3F12,"['Cs', 'Ba', 'Cr', 'F']",68.0,-396.51227298,6.05356514133959e-05,0.0,
19785,Ba4Cs4I12,mp-1096925,CsBaI3,"['Cs', 'Ba', 'I']",20.0,-63.49734775,0.019279610810547076,0.0,
346,Ba4Cs4Li4O28P8,mp-1019708,CsBaLiP2O7,"['Cs', 'Ba', 'Li', 'P', 'O']",48.0,-322.68206406,0.0036137115999341773,0.0,
28531,Ba4Cs4P4S16,mp-1192526,CsBaPS4,"['Cs', 'Ba', 'P', 'S']",28.0,-132.85019626,0.0048843437765064834,0.0,
4595,Ba4Cs4S16V4,mp-1192754,CsBaVS4,"['Cs', 'Ba', 'V', 'S']",28.0,-152.81600039,9.693169782387656e-05,0.0,
5102,B1Be2Cs1F2O3,mp-553342,CsBe2BO3F2,"['Cs', 'Be', 'B', 'O', 'F']",9.0,-59.24492765,4.825427518007075e-05,6.217248937900877e-15,
23866,Be8Cs4F20,mp-27192,CsBe2F5,"['Cs', 'Be', 'F']",32.0,-173.63627596,5.329070518200751e-15,5.329070518200751e-15,
25536,Be8Cs4H4O32P8,mp-1201252,CsBe2P2HO8,"['Cs', 'Be', 'P', 'H', 'O']",56.0,-380.06469462,0.00028739639927444216,0.0,
8815,B12Be16Cs4O36,mp-1019718,CsBe4(BO3)3,"['Cs', 'Be', 'B', 'O']",68.0,-497.89845188,2.753439338221142e-05,0.0,