,Composition,MaterialId,Reduced Formula,Elements,NSites,Corrected Energy,Decomposition Energy Per Atom All,Decomposition Energy Per Atom MP,Directory
7306,Al1Cs2H6Na1,mp-989642,Cs2NaAlH6,"['Cs', 'Na', 'Al', 'H']",10.0,-29.34090223,0.00024370949511709483,0.0,
7249,As28Cs8Na4,mp-1197430,Cs2NaAs7,"['Cs', 'Na', 'As']",40.0,-157.20467049,0.0009295329160150523,0.0,
29978,As1Cs2F6Na1,mp-1112596,Cs2NaAsF6,"['Cs', 'Na', 'As', 'F']",10.0,-44.3984486,0.005417317276613431,0.0,
31821,As2Cs4Na2O8,mp-8314,Cs2NaAsO4,"['Cs', 'Na', 'As', 'O']",16.0,-82.16647021,0.0003279231237796054,0.0,
1858,Bi1Cl6Cs2Na1,mp-1080041,Cs2NaBiCl6,"['Cs', 'Na', 'Bi', 'Cl']",10.0,-34.15812246,0.000847110689452979,1.3322676295501878e-14,
30225,Bi1Cs2F6Na1,mp-560790,Cs2NaBiF6,"['Cs', 'Na', 'Bi', 'F']",10.0,-45.03890887,0.00021633345898486311,4.440892098500626e-15,
23303,Br6Ce1Cs2Na1,mp-1112660,Cs2NaCeBr6,"['Cs', 'Na', 'Ce', 'Br']",10.0,-37.1141195,7.105427357601002e-15,0.0,
13913,Ce1Cl6Cs2Na1,mp-1079458,Cs2NaCeCl6,"['Cs', 'Na', 'Ce', 'Cl']",10.0,-41.11864822,0.0,7.993605777301127e-15,
3370,Ce1Cs2F6Na1,mp-1110982,Cs2NaCeF6,"['Cs', 'Na', 'Ce', 'F']",10.0,-52.93739311,0.0,0.0,
6704,Ce1Cs2I6Na1,mp-1112656,Cs2NaCeI6,"['Cs', 'Na', 'Ce', 'I']",10.0,-32.67644934,0.012293971334471188,0.0,
27676,Co2Cs4F12Na2,mp-558211,Cs2NaCoF6,"['Cs', 'Na', 'Co', 'F']",20.0,-88.84351148,0.025067732477872973,8.881784197001252e-15,
22950,Cr2Cs4F12Na2,mp-557047,Cs2NaCrF6,"['Cs', 'Na', 'Cr', 'F']",20.0,-100.98075851,0.0002605425175872256,0.0,
8858,Cl6Cs2Dy1Na1,mp-1110563,Cs2NaDyCl6,"['Cs', 'Na', 'Dy', 'Cl']",10.0,-40.15484428,0.00010032846972674037,0.0,
13072,Cl6Cs2Er1Na1,mp-580589,Cs2NaErCl6,"['Cs', 'Na', 'Er', 'Cl']",10.0,-40.13306823,0.00015276562304666896,0.0,
22965,Cs2Er1F6Na1,mp-13816,Cs2NaErF6,"['Cs', 'Na', 'Er', 'F']",10.0,-52.47557869,0.0002661635927729833,0.0,
1617,Cs4F12Fe2Na2,mp-504611,Cs2NaFeF6,"['Cs', 'Na', 'Fe', 'F']",20.0,-94.71913967,0.00043750502539019465,0.0,
31615,Cs4F12Ga2Na2,mp-6163,Cs2NaGaF6,"['Cs', 'Na', 'Ga', 'F']",20.0,-90.91883797,0.00028225005957072113,0.0,
11977,Cs4Ga2Na2P4,mp-1213705,Cs2NaGaP2,"['Cs', 'Na', 'Ga', 'P']",12.0,-39.1301335,0.0009989051106771285,0.0,
30434,Cl6Cs2Gd1Na1,mp-1112657,Cs2NaGdCl6,"['Cs', 'Na', 'Gd', 'Cl']",10.0,-49.55547951,0.0028407605478522058,0.0,
14088,Cl6Cs2Ho1Na1,mp-542951,Cs2NaHoCl6,"['Cs', 'Na', 'Ho', 'Cl']",10.0,-40.13782784,0.0002883005947307282,0.0,
459,Br6Cs2In1Na1,mp-996943,Cs2NaInBr6,"['Cs', 'Na', 'In', 'Br']",10.0,-29.70026344,0.0039944228304436,0.0,
6842,Cl6Cs2In1Na1,mp-989571,Cs2NaInCl6,"['Cs', 'Na', 'In', 'Cl']",10.0,-33.46211865,0.00019068626953133716,0.0,
27921,Cs2F6In1Na1,mp-13898,Cs2NaInF6,"['Cs', 'Na', 'In', 'F']",10.0,-44.59478518,0.00019777899707040802,0.0,
25372,Cl6Cs2Lu1Na1,mp-1111824,Cs2NaLuCl6,"['Cs', 'Na', 'Lu', 'Cl']",10.0,-40.07843414,0.0003187045302741609,0.0,
8884,Cs2F6Mo1Na1,mp-1110968,Cs2NaMoF6,"['Cs', 'Na', 'Mo', 'F']",10.0,-49.22575272,0.002801140963856419,0.0,
29081,Br6Cs2Na1Nd1,mp-1112145,Cs2NaNdBr6,"['Cs', 'Na', 'Nd', 'Br']",10.0,-36.06778393,0.0032106298271488143,0.0,
28215,Cl6Cs2Na1Nd1,mp-1111821,Cs2NaNdCl6,"['Cs', 'Na', 'Nd', 'Cl']",10.0,-40.0911952,0.0001358907666055842,3.552713678800501e-15,
28474,Cs2F6Na1Nd1,mp-1110981,Cs2NaNdF6,"['Cs', 'Na', 'Nd', 'F']",10.0,-51.89567665,0.007441643624272132,0.0,
18993,Cs2F6Na1Pb1,mp-989556,Cs2NaPbF6,"['Cs', 'Na', 'Pb', 'F']",10.0,-43.27835153,0.02043868008410321,0.0,
29927,Br6Cs2Na1Pr1,mp-1112146,Cs2NaPrBr6,"['Cs', 'Na', 'Pr', 'Br']",10.0,-36.05332739,0.0033157515242914215,0.0,
31437,Cl6Cs2Na1Pr1,mp-1111820,Cs2NaPrCl6,"['Cs', 'Na', 'Pr', 'Cl']",10.0,-40.0522931,0.0002705313085966665,0.0,
2882,Cs2I6Na1Pr1,mp-1112144,Cs2NaPrI6,"['Cs', 'Na', 'Pr', 'I']",10.0,-31.63614859,0.012619593819823915,0.0,
15231,Cs2F6Na1Rh1,mp-1111979,Cs2NaRhF6,"['Cs', 'Na', 'Rh', 'F']",10.0,-45.4349209,0.00023839095703159785,0.0,
27462,Cs2F6Na1Ru1,mp-1112013,Cs2NaRuF6,"['Cs', 'Na', 'Ru', 'F']",10.0,-47.24049233,0.026468738801759706,0.0,
3547,Br6Cs2Na1Sc1,mp-1112534,Cs2NaScBr6,"['Cs', 'Na', 'Sc', 'Br']",10.0,-37.01429951,0.0001774189951175842,0.0,
30288,Cl6Cs2Na1Sc1,mp-1111433,Cs2NaScCl6,"['Cs', 'Na', 'Sc', 'Cl']",10.0,-41.19922153,0.0001990414580070876,0.0,
29614,Cs2F6Na1Sc1,mp-6204,Cs2NaScF6,"['Cs', 'Na', 'Sc', 'F']",10.0,-53.80892836,0.0001903976425783327,0.0,
25205,Cl6Cs2Na1Sm1,mp-580541,Cs2NaSmCl6,"['Cs', 'Na', 'Sm', 'Cl']",10.0,-40.12919967,0.0,0.0,
30659,Cs2F6Na1Sm1,mp-1205868,Cs2NaSmF6,"['Cs', 'Na', 'Sm', 'F']",10.0,-52.08554176,0.0,0.0,
16485,Cl6Cs2Na1Tb1,mp-568670,Cs2NaTbCl6,"['Cs', 'Na', 'Tb', 'Cl']",10.0,-40.16726855,0.00017473496582010029,0.0,
30685,Cs2F6Na1Tb1,mp-1206873,Cs2NaTbF6,"['Cs', 'Na', 'Tb', 'F']",10.0,-52.34148437,0.00026235706738209075,0.0,
1769,Cs6F18Na3Ti3,mp-562050,Cs2NaTiF6,"['Cs', 'Na', 'Ti', 'F']",30.0,-158.10660733,0.00591736146093691,0.0,
4493,Cs2F6Na1Tl1,mp-13800,Cs2NaTlF6,"['Cs', 'Na', 'Tl', 'F']",10.0,-41.42156616,0.00021239950292972765,0.0,
16871,Cl6Cs2Na1Tm1,mp-1112567,Cs2NaTmCl6,"['Cs', 'Na', 'Tm', 'Cl']",10.0,-40.05080221,0.00016441706152381386,3.552713678800501e-15,
28823,Cl6Cs2Na1U1,mp-23108,Cs2NaUCl6,"['Cs', 'Na', 'U', 'Cl']",10.0,-44.27068267,0.0005198158857426805,0.0,
16179,Cs4F12Na2V2,mp-561500,Cs2NaVF6,"['Cs', 'Na', 'V', 'F']",20.0,-100.25547317,0.0645395861289062,9.769962616701378e-15,
29782,Cs4Na2O8V2,mp-19447,Cs2NaVO4,"['Cs', 'Na', 'V', 'O']",16.0,-91.80795672,0.00034283866699169607,0.0,
11288,Br6Cs2Na1Y1,mp-571467,Cs2NaYBr6,"['Cs', 'Na', 'Y', 'Br']",10.0,-37.86418073,0.00018418530078090356,0.0,
2336,Cl6Cs2Na1Y1,mp-23120,Cs2NaYCl6,"['Cs', 'Na', 'Y', 'Cl']",10.0,-41.99037064,0.00018683736718738686,0.0,
9796,Cs2F6Na1Y1,mp-13925,Cs2NaYF6,"['Cs', 'Na', 'Y', 'F']",10.0,-54.11223213,0.0002948198369141508,0.0,
4513,Cs2I6Na1Y1,mp-1112137,Cs2NaYI6,"['Cs', 'Na', 'Y', 'I']",10.0,-33.3226053,0.005170281166992474,0.0,
12090,Cl14Cs4Nb6O10,mp-1201406,Cs2Nb3Cl7O5,"['Cs', 'Nb', 'Cl', 'O']",34.0,-208.15274563,7.893568704098186e-05,0.0,
27936,Cs16Nb32O88,mp-581217,Cs2Nb4O11,"['Cs', 'Nb', 'O']",136.0,-1114.72761426,0.000922557141542768,0.0,
31607,Cl18Cs2Nb6Pb1,mp-569465,Cs2Nb6PbCl18,"['Cs', 'Nb', 'Pb', 'Cl']",27.0,-136.85268934,0.0004539655975106527,0.0,
28077,Ag2Cs4Nb2S8,mp-623028,Cs2NbAgS4,"['Cs', 'Nb', 'Ag', 'S']",16.0,-79.24254045,8.48818481440361e-05,0.0,
14284,Ag2Cs4Nb2Se8,mp-14637,Cs2NbAgSe4,"['Cs', 'Nb', 'Ag', 'Se']",16.0,-72.81525294,0.0,0.0,
13960,Cs4Cu2Nb2Se8,mp-15223,Cs2NbCuSe4,"['Cs', 'Nb', 'Cu', 'Se']",16.0,-75.72247714,3.271308227592584e-05,0.0,
7488,Cs2F6Nb1,mp-8995,Cs2NbF6,"['Cs', 'Nb', 'F']",9.0,-49.82309141,0.00872171080566364,-2.6645352591003757e-15,
31226,Ag1Cl6Cs2Nd1,mp-1112945,Cs2NdAgCl6,"['Cs', 'Nd', 'Ag', 'Cl']",10.0,-38.7735524,0.0059046301477092555,7.105427357601002e-15,
28473,Cs4N8Ni2O24,mp-557503,Cs2Ni(NO3)4,"['Cs', 'Ni', 'N', 'O']",38.0,-224.72673636,0.0,0.0,
4526,Cs4Ni6S8,mp-28486,Cs2Ni3S4,"['Cs', 'Ni', 'S']",18.0,-84.74521679,9.715478732630345e-05,0.0,
15194,Cs2Ni3Se4,mp-14336,Cs2Ni3Se4,"['Cs', 'Ni', 'Se']",9.0,-38.97023481,0.0004823023339843857,0.0,
5527,As4Cs4Ni2,mp-1206689,Cs2NiAs2,"['Cs', 'Ni', 'As']",10.0,-37.82735844,0.0008819385927734125,0.0,
4842,Cs2F6Ni1,mp-689925,Cs2NiF6,"['Cs', 'Ni', 'F']",9.0,-35.2962162,0.0,0.0,
15352,Cs4H24Ni2O28S4,mp-542420,Cs2NiH12(SO7)2,"['Cs', 'Ni', 'H', 'S', 'O']",62.0,-326.82817844,0.0001673667061501405,0.0,
25509,Cs4Ni2O4,mp-755100,Cs2NiO2,"['Cs', 'Ni', 'O']",10.0,-39.60848403,0.0,0.0,
633,Cs8Np4O40S8,mp-573103,Cs2Np(SO5)2,"['Cs', 'Np', 'S', 'O']",60.0,-411.54791212,0.000161934230469285,0.0,
957,Cs8F28Np8O16P4,mp-572986,Cs2Np2PO4F7,"['Cs', 'Np', 'P', 'O', 'F']",64.0,-458.95308334,0.003722446496438714,0.0,
9819,Br6Cs2Np1,mp-647426,Cs2NpBr6,"['Cs', 'Np', 'Br']",9.0,-39.08947171,0.00041968114800372547,0.0,
7484,Cs2Np1O4,mp-1025274,Cs2NpO4,"['Cs', 'Np', 'O']",7.0,-51.71350157,1.8055743584710626e-05,0.0,
1838,Cs2O1,mp-7988,Cs2O,"['Cs', 'O']",3.0,-9.61765578,0.00011342887442156169,0.0,
3585,Cs2O2,mp-7896,Cs2O2,"['Cs', 'O']",4.0,-15.67877056,0.0,0.0,
20084,Cs4P4Pd2,mp-1205610,Cs2P2Pd,"['Cs', 'P', 'Pd']",10.0,-40.73393462,0.0005216380976555968,8.881784197001252e-16,
18469,Cs4P6,mp-14652,Cs2P3,"['Cs', 'P']",10.0,-40.66734167,7.394889648182357e-06,0.0,
25129,Cs4O28P8Pd6,mp-1199678,Cs2P4Pd3O14,"['Cs', 'P', 'Pd', 'O']",46.0,-297.97934726,0.00034398683254099893,1.2434497875801753e-14,
28174,Au4Cs8P4S16,mp-1196015,Cs2PAuS4,"['Cs', 'P', 'Au', 'S']",32.0,-133.43513969,0.0003323351269530761,0.0,
17200,Cs8H12O32P4Se4,mp-1200093,Cs2PH3SeO8,"['Cs', 'P', 'H', 'Se', 'O']",60.0,-332.65479049,0.0004400193398446106,0.0,
21767,Cs8H20O24P4,mp-1203821,Cs2PH5O6,"['Cs', 'P', 'H', 'O']",56.0,-305.75258333,0.0008090239620539563,0.0,
12894,Cs8F4O12P4,mp-6557,Cs2PO3F,"['Cs', 'P', 'O', 'F']",28.0,-162.87198631,1.7401492735658053e-06,0.0,
9728,Cs4P2Se10,mp-569060,Cs2PSe5,"['Cs', 'P', 'Se']",16.0,-59.70859632,0.0008659473156740205,0.0,
29215,Cs4F14Pa2,mp-1105197,Cs2PaF7,"['Cs', 'Pa', 'F']",20.0,-118.82603877,-1.1546319456101628e-14,0.0,
28741,Cl4Cs4I4Pb2,mp-2647097,Cs2Pb(ICl)2,"['Cs', 'Pb', 'I', 'Cl']",14.0,-44.50606024,2.2824002514632014e-06,0.0,
29521,Cs4O6Pb4,mp-1213706,Cs2Pb2O3,"['Cs', 'Pb', 'O']",14.0,-65.37388048,0.00033130848772344734,0.0,
17877,Cl6Cs2Pb1,mp-23425,Cs2PbCl6,"['Cs', 'Pb', 'Cl']",9.0,-28.61447252,3.1086244689504383e-15,3.1086244689504383e-15,
28662,Cl1Cs2F6Pb1,mp-989549,Cs2PbClF6,"['Cs', 'Pb', 'Cl', 'F']",10.0,-38.75989575,0.22567269327448702,0.0,
1981,Cl4Cs4N4O12Pb2,mp-1193131,Cs2PbN2(ClO3)2,"['Cs', 'Pb', 'N', 'Cl', 'O']",26.0,-138.66995824,6.714852161415763e-05,0.0,
3384,Cs8O8Pb4,mp-562263,Cs2PbO2,"['Cs', 'Pb', 'O']",20.0,-85.82991392,0.0002040140830086301,0.0,
1420,Cs4O6Pb2,mp-21521,Cs2PbO3,"['Cs', 'Pb', 'O']",12.0,-55.06293749,8.479646728520862e-05,0.0,
25058,Br4Cs2I2Pd1,mp-543024,Cs2Pd(IBr2)2,"['Cs', 'Pd', 'I', 'Br']",9.0,-25.14410681,1.1102230246251565e-14,0.0,
10339,Cl4Cs2I2Pd1,mp-607298,Cs2Pd(ICl2)2,"['Cs', 'Pd', 'I', 'Cl']",9.0,-27.16333287,0.0,0.0,
21889,Cs2Pd3S4,mp-510268,Cs2Pd3S4,"['Cs', 'Pd', 'S']",9.0,-40.61564187,0.0005800245627165523,0.0,
6412,Cs2Pd3Se4,mp-11694,Cs2Pd3Se4,"['Cs', 'Pd', 'Se']",9.0,-38.01037656,0.0,0.0,
5085,Br6Cs2Pd1,mp-1205847,Cs2PdBr6,"['Cs', 'Pd', 'Br']",9.0,-25.91611912,9.642427517331242e-05,0.0,
9287,Cl4Cs2Pd1,mp-1078085,Cs2PdCl4,"['Cs', 'Pd', 'Cl']",7.0,-24.1682325,0.0,0.0,
14751,Cl6Cs2Pd1,mp-1206568,Cs2PdCl6,"['Cs', 'Pd', 'Cl']",9.0,-28.77925162,7.899277018230677e-05,0.0,
28229,Cs2F6Pd1,mp-504729,Cs2PdF6,"['Cs', 'Pd', 'F']",9.0,-37.42517569,3.552713678800501e-15,0.0,
11778,Cs2I17Os2Pr10,mp-1213720,Cs2Pr10Os2I17,"['Cs', 'Pr', 'Os', 'I']",31.0,-136.73378043,0.002267415564515929,7.993605777301127e-15,
28606,Cl20Cs8Pr4,mp-1213713,Cs2PrCl5,"['Cs', 'Pr', 'Cl']",32.0,-133.10245057,0.00013147327637508255,7.993605777301127e-15,
6029,Cs2F6Pr1,mp-1207345,Cs2PrF6,"['Cs', 'Pr', 'F']",9.0,-45.07643843,0.025631833057865094,0.0,
5331,Cs2Pt3S4,mp-13992,Cs2Pt3S4,"['Cs', 'Pt', 'S']",9.0,-43.20302692,0.0,0.0,
6481,Cs2Pt3Se4,mp-14338,Cs2Pt3Se4,"['Cs', 'Pt', 'Se']",9.0,-40.34730654,0.0,0.0,
3828,Br6Cs2Pt1,mp-30062,Cs2PtBr6,"['Cs', 'Pt', 'Br']",9.0,-27.19148558,-1.3322676295501878e-15,-1.3322676295501878e-15,
12975,C2Cs2Pt1,mp-505825,Cs2PtC2,"['Cs', 'Pt', 'C']",5.0,-26.61044653,0.007342774678618547,-8.881784197001252e-16,
18296,Cl8Cs4Pt2,mp-1539446,Cs2PtCl4,"['Cs', 'Pt', 'Cl']",14.0,-49.60049952,7.173219168876699e-06,0.0,
1495,Cl6Cs2Pt1,mp-23406,Cs2PtCl6,"['Cs', 'Pt', 'Cl']",9.0,-30.23189982,0.0,0.0,
26018,Cs2F6Pt1,mp-9262,Cs2PtF6,"['Cs', 'Pt', 'F']",9.0,-38.72728617,3.608120876563703e-05,-1.7763568394002505e-15,
2812,Cs2I6Pt1,mp-23060,Cs2PtI6,"['Cs', 'Pt', 'I']",9.0,-24.39228454,3.2639205185258646e-05,-1.3322676295501878e-15,
3212,Cs2F6O18Pt1S6,mp-622197,Cs2PtS6(O3F)6,"['Cs', 'Pt', 'S', 'O', 'F']",33.0,-181.46125271,0.0053083821602957215,-2.1316282072803006e-14,
21575,Cl4Cs2O2Pu1,mp-1079678,Cs2Pu(Cl2O)2,"['Cs', 'Pu', 'Cl', 'O']",9.0,-51.95812768,0.0003365654220930381,-2.6645352591003757e-15,
6574,Cl6Cs2Pu1,mp-571448,Cs2PuCl6,"['Cs', 'Pu', 'Cl']",9.0,-44.43574271,0.007288685705295173,0.0,
9982,Cs2O4Pu1,mp-1025208,Cs2PuO4,"['Cs', 'Pu', 'O']",7.0,-52.00524365,0.0002047384068228908,1.7763568394002505e-15,
15324,As1Br6Cs2Rb1,mp-1112134,Cs2RbAsBr6,"['Cs', 'Rb', 'As', 'Br']",10.0,-29.7901497,0.046854286745849016,0.0,
11273,As1Cs2F6Rb1,mp-1111968,Cs2RbAsF6,"['Cs', 'Rb', 'As', 'F']",10.0,-43.97545039,0.0047836742263207555,0.0,
17669,Bi1Cs2F6Rb1,mp-559695,Cs2RbBiF6,"['Cs', 'Rb', 'Bi', 'F']",10.0,-44.49894174,6.198314453698117e-06,-4.440892098500626e-15,
8162,Cs2Cu1F6Rb1,mp-1206535,Cs2RbCuF6,"['Cs', 'Rb', 'Cu', 'F']",10.0,-41.15487239,0.0,0.0,
24719,Cs2F6Fe1Rb1,mp-1112167,Cs2RbFeF6,"['Cs', 'Rb', 'Fe', 'F']",10.0,-46.98003746,0.00011407016210895904,0.0,
17444,Cs2F6Ga1Rb1,mp-989618,Cs2RbGaF6,"['Cs', 'Rb', 'Ga', 'F']",10.0,-45.08711789,1.5252832064049926e-07,-1.7763568394002505e-15,
17019,Cs2F6In1Rb1,mp-989605,Cs2RbInF6,"['Cs', 'Rb', 'In', 'F']",10.0,-44.14254966,6.076581152303362e-05,0.0,
30073,Cl6Cs2Lu1Rb1,mp-1112515,Cs2RbLuCl6,"['Cs', 'Rb', 'Lu', 'Cl']",10.0,-39.7759241,0.0023602761425793872,0.0,
29930,Cs2F6Rb1Ru1,mp-1112166,Cs2RbRuF6,"['Cs', 'Rb', 'Ru', 'F']",10.0,-46.84097316,0.01913271482275647,0.0,
22254,Cs2F6Rb1Sc1,mp-1111963,Cs2RbScF6,"['Cs', 'Rb', 'Sc', 'F']",10.0,-53.3818084,0.0025295451318365636,0.0,
31757,Cl6Cs2Rb1Sm1,mp-1112118,Cs2RbSmCl6,"['Cs', 'Rb', 'Sm', 'Cl']",10.0,-39.78946903,0.005046711052817621,0.0,
16400,Cl6Cs2Rb1Tb1,mp-1112115,Cs2RbTbCl6,"['Cs', 'Rb', 'Tb', 'Cl']",10.0,-39.8395325,0.007304281200195106,0.0,
25368,Cs2F6Rb1Tl1,mp-989567,Cs2RbTlF6,"['Cs', 'Rb', 'Tl', 'F']",10.0,-40.90905382,3.846260449247296e-05,0.0,
19297,Cs2F6Rb1Y1,mp-7886,Cs2RbYF6,"['Cs', 'Rb', 'Y', 'F']",10.0,-53.58857389,0.012290465614258395,0.0,
8996,Cl12Cs8O12Re4,mp-1202505,Cs2Re(ClO)3,"['Cs', 'Re', 'Cl', 'O']",36.0,-197.49681944,0.0009449467892794772,0.0,
18473,Cs12Re12Se30,mp-651741,Cs2Re2Se5,"['Cs', 'Re', 'Se']",54.0,-302.86587306,0.01178215398148108,0.0,
28672,Cs16I24Re24Se32,mp-1214500,Cs2Re3Se4I3,"['Cs', 'Re', 'Se', 'I']",96.0,-538.03024645,0.0,0.0,
19556,Cl6Cs2Re1,mp-567942,Cs2ReCl6,"['Cs', 'Re', 'Cl']",9.0,-37.33876273,0.00013685731119661426,-1.7763568394002505e-15,
26572,Cs2F6Re1,mp-1205774,Cs2ReF6,"['Cs', 'Re', 'F']",9.0,-48.01752008,0.003139516257575359,-2.6645352591003757e-15,
5903,Cs2F6Rh1,mp-1206623,Cs2RhF6,"['Cs', 'Rh', 'F']",9.0,-40.35473871,0.010180667286241452,-1.7763568394002505e-15,
4278,Cs8O16Ru4,mp-17546,Cs2RuO4,"['Cs', 'Ru', 'O']",28.0,-160.88660586,0.0,0.0,
309,Cs8S4,mp-540703,Cs2S,"['Cs', 'S']",12.0,-35.21746804,0.02238220536621105,0.0,
17355,Cs4S6,mp-1079600,Cs2S3,"['Cs', 'S']",10.0,-36.46078674,0.0006721225087886751,0.0,
13917,Cs8S20,mp-1193140,Cs2S5,"['Cs', 'S']",28.0,-107.21435439,0.0004825105378065686,0.0,
4630,Cs8O16S4,mp-505782,Cs2SO4,"['Cs', 'S', 'O']",28.0,-155.20939898,0.0006354830315293825,0.0,
26972,Cs16Sb8,mp-1191118,Cs2Sb,"['Cs', 'Sb']",24.0,-56.40190415,0.0006040023966469299,0.0,
16368,Cs4Pd2Sb4,mp-1078965,Cs2Sb2Pd,"['Cs', 'Sb', 'Pd']",10.0,-35.37215653,0.002338717117187361,0.0,
8900,Cs4Pt2Sb4,mp-1080614,Cs2Sb2Pt,"['Cs', 'Sb', 'Pt']",10.0,-37.01532655,0.012304332813313668,0.0,
17282,Cs8S28Sb16,mp-27146,Cs2Sb4S7,"['Cs', 'Sb', 'S']",52.0,-217.9790718,0.00014569987229506864,0.0,
6639,Cs4S26Sb16,mp-1226852,Cs2Sb8S13,"['Cs', 'Sb', 'S']",46.0,-196.92361003,0.001664032338655197,0.0,
6585,Br6Cs2Sb1,mp-28269,Cs2SbBr6,"['Cs', 'Sb', 'Br']",9.0,-26.11732331,0.0008423590017359039,0.0,
15683,Cl6Cs2Sb1,mp-1184201,Cs2SbCl6,"['Cs', 'Sb', 'Cl']",9.0,-29.37108489,0.0004267487402347392,0.0,
26666,Cs4F10Sb2,mp-1214796,Cs2SbF5,"['Cs', 'Sb', 'F']",16.0,-73.0598395,0.00037626126098810886,1.7763568394002505e-15,
25261,Ag1Cl6Cs2Sc1,mp-1112622,Cs2ScAgCl6,"['Cs', 'Sc', 'Ag', 'Cl']",10.0,-39.87544921,8.677022461434092e-06,0.0,
21621,Ag1Cs2F6Sc1,mp-1113115,Cs2ScAgF6,"['Cs', 'Sc', 'Ag', 'F']",10.0,-51.70251709,1.3806136718308437e-05,0.0,
603,Cs2F6Sc1Tl1,mp-1112337,Cs2ScTlF6,"['Cs', 'Sc', 'Tl', 'F']",10.0,-52.75494033,2.876787110750456e-07,0.0,
11295,Cs2Se1,mp-1011695,Cs2Se,"['Cs', 'Se']",3.0,-8.43094035,0.00011075959472695018,0.0,
31473,Cs4Se6,mp-7449,Cs2Se3,"['Cs', 'Se']",10.0,-32.7600879,0.0,0.0,
1480,Cl6Cs2Se1,mp-27830,Cs2SeCl6,"['Cs', 'Se', 'Cl']",9.0,-26.78338065,-1.3322676295501878e-15,-1.3322676295501878e-15,
16807,Cs8O16Se4,mp-562442,Cs2SeO4,"['Cs', 'Se', 'O']",28.0,-139.93880668,2.596905273488659e-05,0.0,
28883,Cs12O126S36Si6,mp-1182737,Cs2Si(S2O7)3,"['Cs', 'Si', 'S', 'O']",180.0,-1086.22660131,0.0040085029218746016,0.0,
11662,Cs16O40Si16,mp-562345,Cs2Si2O5,"['Cs', 'Si', 'O']",72.0,-479.7579851,-2.4868995751603507e-14,0.0,
13067,Cs8Se20Si8,mp-542550,Cs2Si2Se5,"['Cs', 'Si', 'Se']",36.0,-151.44928561,0.00037374634765630077,0.0,
6944,Cs8O36Si12Sn4,mp-554359,Cs2Si3SnO9,"['Cs', 'Si', 'Sn', 'O']",60.0,-413.99933366,3.3499609397580343e-07,0.0,
17243,As4Cs4Si2,mp-573721,Cs2SiAs2,"['Cs', 'Si', 'As']",10.0,-37.60144336,0.00015076898046917364,0.0,
769,B4Cs2O9Si1,mp-1226151,Cs2SiB4O9,"['Cs', 'Si', 'B', 'O']",16.0,-118.20942566,0.0015830916845702703,0.0,
24747,Cs2F6Si1,mp-4047,Cs2SiF6,"['Cs', 'Si', 'F']",9.0,-46.87466238,4.80527126445196e-06,-2.6645352591003757e-15,
8359,Cs24O36Si12,mp-505734,Cs2SiO3,"['Cs', 'Si', 'O']",72.0,-427.88344136,0.0,0.0,
9647,Cs4P4Si2,mp-8932,Cs2SiP2,"['Cs', 'Si', 'P']",10.0,-40.75952875,0.0,0.0,
29883,Cs4H4O28P8Si2,mp-697078,Cs2SiP4(HO7)2,"['Cs', 'Si', 'P', 'H', 'O']",46.0,-308.86125744,4.5249660907131783e-08,0.0,
17477,Cs4S6Si2,mp-1103520,Cs2SiS3,"['Cs', 'Si', 'S']",12.0,-52.93744744,0.0001682237906903694,-1.7763568394002505e-15,
28571,Cs4Se8Si2,mp-637251,Cs2SiSe4,"['Cs', 'Si', 'Se']",14.0,-54.6893534,0.0005941113909040396,1.7763568394002505e-15,
6171,Ag1Cl6Cs2Sm1,mp-1112939,Cs2SmAgCl6,"['Cs', 'Sm', 'Ag', 'Cl']",10.0,-38.80515052,-2.6645352591003757e-15,0.0,
1793,Au4Cs4S8Sn2,mp-561641,Cs2Sn(AuS2)2,"['Cs', 'Sn', 'Au', 'S']",18.0,-70.53905189,3.418929795984127e-05,0.0,
19991,Cs4Ge6O18Sn2,mp-540707,Cs2Sn(GeO3)3,"['Cs', 'Sn', 'Ge', 'O']",30.0,-181.00873281,0.0,0.0,
17596,Cs2H12N6Sn1,mp-505233,Cs2Sn(H2N)6,"['Cs', 'Sn', 'H', 'N']",21.0,-102.62584922,0.00019790614397319217,0.0,
24295,Cs2Hg3S8Sn2,mp-561185,Cs2Sn2Hg3S8,"['Cs', 'Sn', 'Hg', 'S']",15.0,-51.60724961,0.0007519282623666967,0.0,
7500,Cs8O12Sn8,mp-540796,Cs2Sn2O3,"['Cs', 'Sn', 'O']",28.0,-138.61504724,1.661032505584359e-05,0.0,
2436,Cs4S20Sb4Sn6,mp-1195304,Cs2Sn3(SbS5)2,"['Cs', 'Sn', 'Sb', 'S']",34.0,-146.07217276,0.002538760017233521,-7.993605777301127e-15,
5052,Cs8Hg4Se32Sn12,mp-1195323,Cs2Sn3HgSe8,"['Cs', 'Sn', 'Hg', 'Se']",56.0,-202.1004867,0.0009582409528454683,0.0,
9278,As4Cs4Sn2,mp-8934,Cs2SnAs2,"['Cs', 'Sn', 'As']",10.0,-34.56218709,0.026666773407997724,0.0,
16700,As4Cs4Se18Sn2,mp-568403,Cs2SnAs2Se9,"['Cs', 'Sn', 'As', 'Se']",28.0,-105.60109702,0.008685380906937823,0.0,
2590,Br6Cs2Sn1,mp-641923,Cs2SnBr6,"['Cs', 'Sn', 'Br']",9.0,-26.93014591,2.0537723524061136e-05,0.0,
21440,Cl6Cs2Sn1,mp-608555,Cs2SnCl6,"['Cs', 'Sn', 'Cl']",9.0,-30.50874453,0.0008363418272572254,0.0,
9183,Cs2F6Sn1,mp-7297,Cs2SnF6,"['Cs', 'Sn', 'F']",9.0,-41.91004095,8.945770399293451e-05,0.0,
21036,Cs2I6Sn1,mp-27636,Cs2SnI6,"['Cs', 'Sn', 'I']",9.0,-23.16442003,0.0,0.0,
15840,Cs4O6Sn2,mp-861243,Cs2SnO3,"['Cs', 'Sn', 'O']",12.0,-59.98235904,0.0002361627636737751,0.0,
3029,Cs8S56Sn4,mp-505141,Cs2SnS14,"['Cs', 'Sn', 'S']",68.0,-277.42425919,0.0,0.0,
28317,Cs4Se6Sn2,mp-1103379,Cs2SnSe3,"['Cs', 'Sn', 'Se']",12.0,-43.74421783,0.0001465330672201226,0.0,
31335,Cs8Sn4Te16,mp-28877,Cs2SnTe4,"['Cs', 'Sn', 'Te']",28.0,-91.05064187,7.935882393894644e-06,0.0,
12954,Cs4O14P4Sr2,mp-14355,Cs2SrP2O7,"['Cs', 'Sr', 'P', 'O']",24.0,-157.99260605,0.0,0.0,
16674,Cs2O12Sr1V4,mp-18160,Cs2SrV4O12,"['Cs', 'Sr', 'V', 'O']",19.0,-132.88017903,3.373243626647593e-05,0.0,
4075,Cl18Cs2Pb1Ta6,mp-569879,Cs2Ta6PbCl18,"['Cs', 'Ta', 'Pb', 'Cl']",27.0,-147.37423779,0.00018767191261659377,-5.329070518200751e-15,
17917,Ag2Cs4S8Ta2,mp-15218,Cs2TaAgS4,"['Cs', 'Ta', 'Ag', 'S']",16.0,-83.35199968,0.0,0.0,
21685,Cl6Cs2Ta1,mp-569885,Cs2TaCl6,"['Cs', 'Ta', 'Cl']",9.0,-39.67389334,0.00016378117838566908,0.0,