,Composition,MaterialId,Reduced Formula,Elements,NSites,Corrected Energy,Decomposition Energy Per Atom All,Decomposition Energy Per Atom MP,Directory
22270,Ca4O16Te4,mp-12221,CaTeO4,"['Ca', 'Te', 'O']",24.0,-143.24634912,1.2430872396329562e-05,0.0,
24418,Ca2O16P4Th2,mp-1227211,CaTh(PO4)2,"['Ca', 'Th', 'P', 'O']",24.0,-190.75675079,0.0007526831477857598,0.0,
30099,Ca1O8Th1V2,mp-1227081,CaThV2O8,"['Ca', 'Th', 'V', 'O']",12.0,-96.2735329,0.00011888105468571553,0.0,
28470,Ca6O72S18Ti6,mp-2713742,CaTi(SO4)3,"['Ca', 'Ti', 'S', 'O']",102.0,-684.08986379,0.010074687682291028,0.0,
19342,Ca8H16O48Ti16,mp-709021,CaTi2(HO3)2,"['Ca', 'Ti', 'H', 'O']",88.0,-659.17502369,0.0023593055468751345,0.0,
17989,Ca1O24P6Ti4,mp-16831,CaTi4(PO4)6,"['Ca', 'Ti', 'P', 'O']",35.0,-276.8208872,3.695611605536442e-05,-1.4210854715202004e-14,
3234,Ca2Cr2O24P6Ti2,mp-1044314,CaTiCr(PO4)3,"['Ca', 'Ti', 'Cr', 'P', 'O']",36.0,-277.39069513,0.00025130715281029836,3.019806626980426e-14,
13388,Ca1F6Ti1,mp-27315,CaTiF6,"['Ca', 'Ti', 'F']",8.0,-50.38520267,3.940236816823983e-06,0.0,
17356,Ca2Fe2O24P6Ti2,mp-39160,CaTiFe(PO4)3,"['Ca', 'Ti', 'Fe', 'P', 'O']",36.0,-271.24603942,0.0002744719487850489,0.0,
18559,Ca4Ge4O20Ti4,mp-17784,CaTiGeO5,"['Ca', 'Ti', 'Ge', 'O']",32.0,-240.8898644,0.0,0.0,
11587,Ca2Mo2O24P6Ti2,mp-1044354,CaTiMo(PO4)3,"['Ca', 'Ti', 'Mo', 'P', 'O']",36.0,-274.7241041,0.005453746245635216,0.0,
23147,Ca16N32Ti16,mp-1029572,CaTiN2,"['Ca', 'Ti', 'N']",64.0,-512.005028,0.04107156109617627,0.0,
4533,Ca4Ni4O36P8Ti4,mp-1043092,CaTiNiP2O9,"['Ca', 'Ti', 'Ni', 'P', 'O']",56.0,-412.77585547,0.0006319536258221348,4.263256414560601e-14,
19205,Ca4O12Ti4,mp-4019,CaTiO3,"['Ca', 'Ti', 'O']",20.0,-161.85764279,0.0,0.0,
945,Ca4O20Si4Ti4,mp-6109,CaTiSiO5,"['Ca', 'Ti', 'Si', 'O']",32.0,-257.76331262,0.0,0.0,
12394,Ca1Tl1,mp-2861,CaTl,"['Ca', 'Tl']",2.0,-5.25902613,0.0008937915368654181,0.0,
19638,Ca1Tl3,mp-526,CaTl3,"['Ca', 'Tl']",4.0,-10.08040719,0.0,0.0,
17558,Br6Ca2Tl2,mp-1205521,CaTlBr3,"['Ca', 'Tl', 'Br']",10.0,-34.52900504,0.0007568843056637853,0.0,
31318,Ca2Cl6Tl2,mp-998787,CaTlCl3,"['Ca', 'Tl', 'Cl']",10.0,-38.42046287,0.0003195516230469764,7.105427357601002e-15,
18647,Ca2Mo8O32U2,mp-556730,CaU(MoO4)4,"['Ca', 'U', 'Mo', 'O']",44.0,-331.60055861,7.705374110500429e-05,-1.5987211554602254e-14,
6615,Ca4O32P8U4,mp-9360,CaU(PO4)2,"['Ca', 'U', 'P', 'O']",48.0,-387.98342846,0.000536963975241278,0.0,
3914,Ca2O16Se4U2,mp-554227,CaU(SeO4)2,"['Ca', 'U', 'Se', 'O']",24.0,-168.61363136,0.0002825057926436614,0.0,
3442,B4Ca2O20U4,mp-1227453,CaU2(BO5)2,"['Ca', 'U', 'B', 'O']",30.0,-262.97641406,0.000610905031249942,0.0,
20714,Ca1O24Ti8U3,mp-1227253,CaU3Ti8O24,"['Ca', 'U', 'Ti', 'O']",36.0,-330.27257013,0.004255199839406032,0.0,
21723,Ca1O4U1,mp-3960,CaUO4,"['Ca', 'U', 'O']",6.0,-52.51340355,0.0,0.0,
3809,Ca2O24P8V2,mp-1045800,CaV(PO3)4,"['Ca', 'V', 'P', 'O']",36.0,-265.18315111,0.0003539364518241328,0.0,
3771,Ca2O20P4V4,mp-556243,CaV2(PO5)2,"['Ca', 'V', 'P', 'O']",30.0,-224.74065902,0.0008015165012942305,0.0,
11339,Ca4O16V8,mp-504712,CaV2O4,"['Ca', 'V', 'O']",28.0,-213.70898149,0.00367403143275169,-3.552713678800501e-15,
9248,Ca2O10V4,mp-19305,CaV2O5,"['Ca', 'V', 'O']",16.0,-120.98003443,6.183967159856252e-05,0.0,
4511,Ca1O6V2,mp-27624,CaV2O6,"['Ca', 'V', 'O']",9.0,-66.63708146,2.3629824218218687e-05,0.0,
27337,Ca4O36P8V8,mp-21541,CaV2P2O9,"['Ca', 'V', 'P', 'O']",56.0,-426.28359919,0.00015206786132893058,0.0,
18376,Ag4Ca2O24V8,mp-16967,CaV4(AgO6)2,"['Ca', 'V', 'Ag', 'O']",38.0,-260.47073109,3.091883834915876e-05,-5.417888360170764e-14,
17521,Bi8Ca8O40V8,mp-560755,CaVBiO5,"['Ca', 'V', 'Bi', 'O']",64.0,-440.11613725,0.0,7.105427357601002e-15,
25287,Ca2F10V2,mp-1401720,CaVF5,"['Ca', 'V', 'F']",14.0,-84.62364331,0.00039857268834353476,6.217248937900877e-15,
11255,Ca4Ni4O36P8V4,mp-21646,CaVNiP2O9,"['Ca', 'V', 'Ni', 'P', 'O']",56.0,-398.74702392,0.0,-1.4210854715202004e-14,
16129,Ca4O20Si4V4,mp-1213869,CaVSiO5,"['Ca', 'V', 'Si', 'O']",32.0,-243.84440907,0.0,0.0,
23046,Ca1F6W1,mp-1395540,CaWF6,"['Ca', 'W', 'F']",8.0,-46.17563923,4.0049405517272874e-05,0.0,
20854,Ca2N6W2,mp-989616,CaWN3,"['Ca', 'W', 'N']",10.0,-86.33797692,0.051273050034915,0.0,
7081,Ca2O8W2,mp-19426,CaWO4,"['Ca', 'W', 'O']",12.0,-87.85189259,0.04281295168782506,0.0,
9869,B4Ca4O16Y4,mp-1213894,CaYBO4,"['Ca', 'Y', 'B', 'O']",28.0,-227.4431539,0.0007093996372837807,0.0,
13991,Ca1Hg2Y1,mp-866223,CaYHg2,"['Ca', 'Y', 'Hg']",4.0,-11.23157647,0.009218566749877866,0.0,
795,Ca2O40P14Y2,mp-1227362,CaYP7O20,"['Ca', 'Y', 'P', 'O']",58.0,-430.87334208,0.0003460518265088197,0.0,
29873,Ca2Zn2,mp-30483,CaZn,"['Ca', 'Zn']",4.0,-7.52066345,0.009121013224792529,0.0,
18504,Ca2Zn22,mp-18567,CaZn11,"['Ca', 'Zn']",24.0,-35.68470992,0.012181981838785605,0.0,
12280,Ca2Zn4,mp-1725,CaZn2,"['Ca', 'Zn']",6.0,-10.86760887,0.00200989429646814,0.0,
19546,Ca2O16P4Zn4,mp-18308,CaZn2(PO4)2,"['Ca', 'Zn', 'P', 'O']",26.0,-169.2307957,1.2434497875801753e-14,1.2434497875801753e-14,
21582,Ca3Ni6Zn9,mp-542953,CaZn3Ni2,"['Ca', 'Zn', 'Ni']",18.0,-57.72321238,0.0007657398345273236,0.0,
10712,Ca1Zn5,mp-1734,CaZn5,"['Ca', 'Zn']",6.0,-9.67196579,0.0,0.0,
9344,Ag2Ca2Zn2,mp-1227020,CaZnAg,"['Ca', 'Zn', 'Ag']",6.0,-14.10127823,0.004469566138508796,0.0,
30422,As4Ca4H4O20Zn4,mp-24018,CaZnAsHO5,"['Ca', 'Zn', 'As', 'H', 'O']",36.0,-208.32258529,8.651069878240492e-06,0.0,
3381,Ca2Ge2Zn2,mp-16263,CaZnGe,"['Ca', 'Zn', 'Ge']",6.0,-18.9584519,0.0,0.0,
29430,Ca4Pd4Zn4,mp-1213948,CaZnPd,"['Ca', 'Zn', 'Pd']",12.0,-41.43575072,0.00044872387451144746,0.0,
8065,Ca2Si2Zn2,mp-16266,CaZnSi,"['Ca', 'Zn', 'Si']",6.0,-20.08987017,0.0004447442089841047,0.0,
5552,Ca2Sn2Zn2,mp-31160,CaZnSn,"['Ca', 'Zn', 'Sn']",6.0,-17.65066485,0.00010306902669299234,0.0,
11895,Ca4O32P8Zr4,mp-554495,CaZr(PO4)2,"['Ca', 'Zr', 'P', 'O']",48.0,-379.22428236,0.00021044643880330227,0.0,
10779,Ca6O72S18Zr6,mp-2713932,CaZr(SO4)3,"['Ca', 'Zr', 'S', 'O']",102.0,-697.74342702,0.014208335549938056,0.0,
196,Ca1O24P6Zr4,mp-556440,CaZr4(PO4)6,"['Ca', 'Zr', 'P', 'O']",35.0,-284.7185991,4.9840167351433706e-05,0.0,
7559,Ca1F6Zr1,mp-1025456,CaZrF6,"['Ca', 'Zr', 'F']",8.0,-52.42435024,0.00020168432495104582,0.0,
17040,Ca1N2Zr1,mp-1029267,CaZrN2,"['Ca', 'Zr', 'N']",4.0,-33.16075278,0.0007549812695302194,0.0,
18176,Ca4O12Zr4,mp-4571,CaZrO3,"['Ca', 'Zr', 'O']",20.0,-166.74823549,7.105427357601002e-15,3.552713678800501e-15,
26746,Ca4O28Ti8Zr4,mp-1227163,CaZrTi2O7,"['Ca', 'Zr', 'Ti', 'O']",44.0,-384.04829248,0.0004357799289778086,0.0,
7774,Ca2F14Tl2Zr2,mp-1213957,CaZrTlF7,"['Ca', 'Zr', 'Tl', 'F']",20.0,-120.90049527,0.0,0.0,
11093,Cd1,mp-1096861,Cd,['Cd'],1.0,-0.92288976,0.0,0.0,
21469,Ag2Cd1I4,mp-1025377,Cd(AgI2)2,"['Cd', 'Ag', 'I']",7.0,-15.6556017,0.00037037656250005213,0.0,
1094,As2Cd1O6,mp-7128,Cd(AsO3)2,"['Cd', 'As', 'O']",9.0,-51.13607358,0.0,0.0,
214,Au4Cd2F16,mp-29169,Cd(AuF4)2,"['Cd', 'Au', 'F']",22.0,-75.38679011,0.00011597466974233583,-1.7763568394002505e-15,
27657,Au4Cd2F24,mp-557715,Cd(AuF6)2,"['Cd', 'Au', 'F']",30.0,-94.24681191,6.880018425059475e-05,-6.217248937900877e-15,
20915,B4Cd2H16,mp-1190754,Cd(BH4)2,"['Cd', 'B', 'H']",22.0,-82.78489354,0.004548931442649007,0.0,
21868,Cd2Co4O8,mp-756301,Cd(CoO2)2,"['Cd', 'Co', 'O']",14.0,-76.45903503,4.081973911862491e-05,0.0,
8849,Cd2Cu4O8,mp-772099,Cd(CuO2)2,"['Cd', 'Cu', 'O']",14.0,-67.5358154,0.0001143820033489007,0.0,
14385,Cd2Fe4O8,mp-21333,Cd(FeO2)2,"['Cd', 'Fe', 'O']",14.0,-83.50249586,0.0,0.0,
24197,Cd2Cl16Ga4,mp-1213982,Cd(GaCl4)2,"['Cd', 'Ga', 'Cl']",22.0,-68.07926232,7.927675870034179e-05,0.0,
16461,Cd2Ga4O8,mp-3443,Cd(GaO2)2,"['Cd', 'Ga', 'O']",14.0,-76.54540143,2.3529436443681107e-07,0.0,
16581,Cd1Ga2S4,mp-4452,Cd(GaS2)2,"['Cd', 'Ga', 'S']",7.0,-28.31882459,0.0,0.0,
1178,Cd1Ga2Se4,mp-3772,Cd(GaSe2)2,"['Cd', 'Ga', 'Se']",7.0,-25.30932222,0.0,0.0,
8405,Cd1Ga2Te4,mp-13949,Cd(GaTe2)2,"['Cd', 'Ga', 'Te']",7.0,-22.21449512,0.0,0.0,
2977,Cd2H4O4,mp-2051619,Cd(HO)2,"['Cd', 'H', 'O']",10.0,-45.71359044,0.0,0.0,
31568,Cd4I8O24,mp-27640,Cd(IO3)2,"['Cd', 'I', 'O']",36.0,-155.12512159,2.9866315104598584e-05,0.0,
3787,Cd2In4S8,mp-559200,Cd(InS2)2,"['Cd', 'In', 'S']",14.0,-54.20453315,4.970167061912889e-05,0.0,
18387,Cd1In2Se4,mp-22304,Cd(InSe2)2,"['Cd', 'In', 'Se']",7.0,-24.41428968,6.843246791277124e-05,0.0,
26957,Cd1In2Te4,mp-21374,Cd(InTe2)2,"['Cd', 'In', 'Te']",7.0,-21.62921115,0.0,3.1086244689504383e-15,
4729,Cd8N16O48,mp-27198,Cd(NO3)2,"['Cd', 'N', 'O']",72.0,-417.08502805,0.0011983374945740977,0.0,
16779,Cd8O48P16,mp-4659,Cd(PO3)2,"['Cd', 'P', 'O']",72.0,-474.23729837,2.994071613304783e-05,-1.2434497875801753e-14,
23640,Cd1O6Pt3,mp-8212,Cd(PtO2)3,"['Cd', 'Pt', 'O']",10.0,-55.49934896,0.0,0.0,
14540,Cd2O8Rh4,mp-14100,Cd(RhO2)2,"['Cd', 'Rh', 'O']",14.0,-82.37639112,1.5232151225674784e-05,-2.6645352591003757e-15,
5389,Cd1O6Sb2,mp-8922,Cd(SbO3)2,"['Cd', 'Sb', 'O']",9.0,-51.36648446,0.0,0.0,
13430,Br56Cd4W24,mp-29052,Cd(W3Br7)2,"['Cd', 'W', 'Br']",84.0,-452.53208587,4.698915457623798e-05,0.0,
8195,Ag1Au1Cd2,mp-31170,Cd2AgAu,"['Cd', 'Ag', 'Au']",4.0,-8.48864009,0.0,0.0,
12707,Ag1Cd2Pt1,mp-1183537,Cd2AgPt,"['Cd', 'Ag', 'Pt']",4.0,-11.53143695,0.037107698611450246,0.0,
31417,Ag1Cd2Rh1,mp-861878,Cd2AgRh,"['Cd', 'Ag', 'Rh']",4.0,-12.37715926,0.03436967177062922,0.0,
19367,As6Br2Cd4,mp-28900,Cd2As3Br,"['Cd', 'As', 'Br']",12.0,-38.29843194,0.0001869807308962912,0.0,
6229,As16Cd32H16O80,mp-1198923,Cd2AsHO5,"['Cd', 'As', 'H', 'O']",144.0,-729.02212747,0.0003407048253025735,0.0,
28314,As4Cd8F4O16,mp-541677,Cd2AsO4F,"['Cd', 'As', 'O', 'F']",32.0,-159.31715825,3.088439941123511e-06,0.0,
10450,B4Cd4O10,mp-7210,Cd2B2O5,"['Cd', 'B', 'O']",18.0,-113.3662369,2.6645352591003757e-15,2.6645352591003757e-15,
25415,As2Bi2Cd4O12,mp-556653,Cd2BiAsO6,"['Cd', 'Bi', 'As', 'O']",20.0,-105.06931097,3.3075157226392093e-05,0.0,
21828,Cd2Cu1O8P2,mp-13361,Cd2Cu(PO4)2,"['Cd', 'Cu', 'P', 'O']",13.0,-78.76811575,2.6890925468592286e-05,-1.1546319456101628e-14,
8609,Ag2Cd4Ga2S8,mp-6356,Cd2GaAgS4,"['Cd', 'Ga', 'Ag', 'S']",16.0,-57.64189994,6.515056762523841e-06,0.0,
19333,Cd8H8O24S4,mp-558011,Cd2H2SO6,"['Cd', 'H', 'S', 'O']",44.0,-225.3703314,0.0,0.0,
12549,Cd8Cl4H12O12,mp-24015,Cd2H3ClO3,"['Cd', 'H', 'Cl', 'O']",36.0,-153.90863152,4.969577908298106e-06,0.0,
30542,As16Cd4Cl24Hg26,mp-1227201,Cd2Hg13(As2Cl3)4,"['Cd', 'Hg', 'As', 'Cl']",70.0,-162.14833797,0.0007544439693125682,4.440892098500626e-15,
15319,Cd4Ni12O36Pb2Te6,mp-1194532,Cd2Ni6Te3PbO18,"['Cd', 'Ni', 'Te', 'Pb', 'O']",60.0,-308.74126586,6.976740494835099e-05,0.0,
4497,Cd4O14Os4,mp-5950,Cd2Os2O7,"['Cd', 'Os', 'O']",22.0,-140.57490971,0.001398585403052266,-2.6645352591003757e-15,
30575,Cd4O14P4,mp-27686,Cd2P2O7,"['Cd', 'P', 'O']",22.0,-136.6468612,0.0,0.0,
25004,Cd4O34P12,mp-29276,Cd2P6O17,"['Cd', 'P', 'O']",50.0,-336.28180958,5.322071874758194e-06,0.0,
15326,Cd8F4O16P4,mp-557910,Cd2PO4F,"['Cd', 'P', 'O', 'F']",32.0,-177.55054772,0.00020793181518552473,0.0,
28856,Cd4O8Pb2,mp-861269,Cd2PbO4,"['Cd', 'Pb', 'O']",14.0,-64.53756368,0.00016389102120584198,0.0,
14377,Cd2Pd1Rh1,mp-865926,Cd2PdRh,"['Cd', 'Pd', 'Rh']",4.0,-15.41731321,0.006548019292602625,0.0,
24846,Cd2Pt1Rh1,mp-865929,Cd2PtRh,"['Cd', 'Pt', 'Rh']",4.0,-16.0457197,0.0368411323895268,0.0,
25940,Au1Cd2Rh1,mp-1183541,Cd2RhAu,"['Cd', 'Rh', 'Au']",4.0,-12.96836916,0.025717816277465833,0.0,
31587,Cd4O14Ru4,mp-505552,Cd2Ru2O7,"['Cd', 'Ru', 'O']",22.0,-131.41749065,0.0021390635830966787,0.0,
31171,Cd4O14Sb4,mp-1191189,Cd2Sb2O7,"['Cd', 'Sb', 'O']",22.0,-119.2685029,0.0,0.0,
4507,Cd4O28P8Si2,mp-541108,Cd2Si(P2O7)2,"['Cd', 'Si', 'P', 'O']",42.0,-284.81004591,6.478999628001247e-05,0.0,
3263,Cd4O8Si2,mp-4530,Cd2SiO4,"['Cd', 'Si', 'O']",14.0,-79.79211104,0.006541502688335754,-2.6645352591003757e-15,
8361,Cd4O8Sn2,mp-5966,Cd2SnO4,"['Cd', 'Sn', 'O']",14.0,-69.84258848,0.0,0.0,
30609,Cd4O14Tc4,mp-1192130,Cd2Tc2O7,"['Cd', 'Tc', 'O']",22.0,-142.05324578,0.01870880736204583,0.0,
20532,Cd8O28Te8,mp-30940,Cd2Te2O7,"['Cd', 'Te', 'O']",44.0,-218.60376416,0.0,0.0,
21049,As8Cd12O32,mp-13602,Cd3(AsO4)2,"['Cd', 'As', 'O']",52.0,-271.33123657,0.007594374480169641,0.0,
29394,B4Cd6O12,mp-1192091,Cd3(BO3)2,"['Cd', 'B', 'O']",22.0,-129.38690047,0.000593918400213056,0.0,
30773,Cd6Cl4O4,mp-29297,Cd3(ClO)2,"['Cd', 'Cl', 'O']",14.0,-47.62078963,8.320051827581665e-05,0.0,
11292,Cd36O96P24,mp-680761,Cd3(PO4)2,"['Cd', 'P', 'O']",156.0,-923.54404205,0.0016189368038856955,0.0,
21922,As32Cd48,mp-570634,Cd3As2,"['Cd', 'As']",80.0,-200.79160351,0.0017329163300781047,0.0,
1009,As4Cd12Cl12,mp-27899,Cd3AsCl3,"['Cd', 'As', 'Cl']",28.0,-72.7513979,1.5062182617153752e-05,0.0,
12513,As1Cd3I3,mp-676464,Cd3AsI3,"['Cd', 'As', 'I']",7.0,-15.09472903,0.003333296181640577,0.0,
1665,Au6Cd18,mp-30370,Cd3Au,"['Cd', 'Au']",24.0,-39.40592184,0.000720187056071131,0.0,
5716,B8Cd6O24Pb6,mp-1196945,Cd3B4(PbO4)3,"['Cd', 'B', 'Pb', 'O']",44.0,-277.60396859,0.0002860143785508029,0.0,
9382,B4Cd12O28P4,mp-1195436,Cd3BPO7,"['Cd', 'B', 'P', 'O']",48.0,-283.75726296,0.00038068092773446693,0.0,
25298,Cd3I3P1,mp-1226891,Cd3PI3,"['Cd', 'P', 'I']",7.0,-15.79334207,0.001817380851702577,0.0,
27499,Cd3Pt1,mp-1183641,Cd3Pt,"['Cd', 'Pt']",4.0,-9.5810296,0.06008203176269511,0.0,
25097,Cd6O20Se6,mp-542117,Cd3Se3O10,"['Cd', 'Se', 'O']",32.0,-155.9124787,0.000806882818602972,0.0,
4216,Cd6O10Si2,mp-13820,Cd3SiO5,"['Cd', 'Si', 'O']",18.0,-95.72832232,2.5726688367200268e-05,0.0,
6546,Cd6O12Te2,mp-14243,Cd3TeO6,"['Cd', 'Te', 'O']",20.0,-93.26555259,0.009753897192708472,0.0,
12418,Cd41Ir8,mp-1199295,Cd41Ir8,"['Cd', 'Ir']",49.0,-111.41778815,0.011411966067442325,0.0,
6719,As16Br24Cd32,mp-1203526,Cd4As2Br3,"['Cd', 'As', 'Br']",72.0,-179.93718734,0.0,0.0,
6489,As16Cd32Cl24,mp-1214272,Cd4As2Cl3,"['Cd', 'As', 'Cl']",72.0,-192.0978796,0.0,0.0,
19907,B3Bi1Cd4O10,mp-1189868,Cd4BiB3O10,"['Cd', 'Bi', 'B', 'O']",18.0,-107.50302357,0.0004989007877602702,9.059419880941277e-14,
2127,Cd4Mo1O16W3,mp-1226936,Cd4MoW3O16,"['Cd', 'Mo', 'W', 'O']",24.0,-151.92163565,0.0030440635945625516,0.0,
11772,Cd8F12O2,mp-28855,Cd4OF6,"['Cd', 'O', 'F']",22.0,-83.85667479,0.0,7.105427357601002e-15,
13861,Br24Cd32P16,mp-28914,Cd4P2Br3,"['Cd', 'P', 'Br']",72.0,-191.45158476,0.0,0.0,
14282,Cd32Cl24P16,mp-29746,Cd4P2Cl3,"['Cd', 'P', 'Cl']",72.0,-204.21126694,0.00012586955295113,0.0,
14543,Cd4N12P6S1,mp-8921,Cd4P6SN12,"['Cd', 'P', 'S', 'N']",23.0,-149.48889538,7.910529884469497e-07,0.0,
23019,Cd32I24Sb16,mp-29044,Cd4Sb2I3,"['Cd', 'Sb', 'I']",72.0,-156.68182506,0.0,0.0,
10896,Cd106Pd32,mp-1214676,Cd53Pd16,"['Cd', 'Pd']",138.0,-297.78417089,0.0,0.0,
63,Au6Cd10,mp-30371,Cd5Au3,"['Cd', 'Au']",16.0,-31.53676599,0.0,0.0,
18277,Cd10Mo4O56P16,mp-556462,Cd5Mo2(P2O7)4,"['Cd', 'Mo', 'P', 'O']",86.0,-571.32695284,-1.2434497875801753e-14,0.0,
4058,Cd28Cl24P16,mp-23476,Cd7(P2Cl3)2,"['Cd', 'P', 'Cl']",68.0,-200.50151791,0.00040077349724310096,0.0,
24983,Cd28Cl32O68Te28,mp-683967,Cd7Te7Cl8O17,"['Cd', 'Te', 'Cl', 'O']",156.0,-679.667705,-8.881784197001252e-15,0.0,
21224,Ag10Cd16,mp-567857,Cd8Ag5,"['Cd', 'Ag']",26.0,-44.89097997,0.0003082490692594142,-2.220446049250313e-16,
21310,Ag2Cd1S8Sn3,mp-1226771,CdAg2Sn3S8,"['Cd', 'Ag', 'Sn', 'S']",14.0,-56.6298853,0.0060741947492344295,0.0,
7815,Ag3Cd1,mp-1183627,CdAg3,"['Cd', 'Ag']",4.0,-9.62603727,0.0,0.0,
31431,Ag1Cd1Pd2,mp-867260,CdAgPd2,"['Cd', 'Ag', 'Pd']",4.0,-15.14845138,0.005525615795084704,0.0,
16357,As4Cd2,mp-471,CdAs2,"['Cd', 'As']",6.0,-20.96789645,0.00048240217285133724,0.0,
4687,As8Cd4F52H4,mp-24302,CdAs2HF13,"['Cd', 'As', 'H', 'F']",68.0,-291.21633962,0.0036454857100176596,0.0,
9051,As1Cd1Pd5,mp-1025294,CdAsPd5,"['Cd', 'As', 'Pd']",7.0,-34.19177065,0.00015666129324554134,-1.7763568394002505e-15,
8830,As1Cd1Pt5,mp-1025311,CdAsPt5,"['Cd', 'As', 'Pt']",7.0,-37.58759489,0.00020900462332651415,0.0,
24509,Au2Cd2,mp-1404,CdAu,"['Cd', 'Au']",4.0,-9.09411573,0.0029712925671385726,0.0,
30848,Au3Cd1,mp-1264,CdAu3,"['Cd', 'Au']",4.0,-11.26509554,3.6043894041437596e-05,0.0,
30190,Au2Cd2O4,mp-997036,CdAuO2,"['Cd', 'Au', 'O']",8.0,-32.62451526,0.03957461580398558,0.0,
4473,B16Cd8F64,mp-557364,CdB2F8,"['Cd', 'B', 'F']",88.0,-470.84415476,6.849560280564049e-05,0.0,
1275,B32Cd8O56,mp-13603,CdB4O7,"['Cd', 'B', 'O']",96.0,-714.38771978,2.6290336913703527e-05,0.0,
6791,Bi12Cd1Cl14O12,mp-1226996,CdBi12(Cl7O6)2,"['Cd', 'Bi', 'Cl', 'O']",39.0,-181.7220812,4.440892098500626e-15,0.0,
22577,B4Bi4Cd4F40,mp-1196929,CdBiBF10,"['Cd', 'Bi', 'B', 'F']",52.0,-237.09198008,0.0036844733244469907,0.0,
17713,Bi2Cd2Cl2O4,mp-550553,CdBiClO2,"['Cd', 'Bi', 'Cl', 'O']",10.0,-45.19208127,0.0001764311054683887,0.0,
17933,Bi2Cd2O6,mp-755478,CdBiO3,"['Cd', 'Bi', 'O']",10.0,-49.61682152,0.013135797422197726,0.0,
5968,Br4Cd2,mp-27934,CdBr2,"['Cd', 'Br']",6.0,-13.68880951,2.8219738362533775e-05,0.0,
14655,C1Cd1N2,mp-10969,CdCN2,"['Cd', 'C', 'N']",4.0,-26.42664809,0.0,0.0,
19312,C2Cd2O6,mp-4385,CdCO3,"['Cd', 'C', 'O']",10.0,-63.49738697,-6.217248937900877e-15,-6.217248937900877e-15,
1471,Cd1Cl2,mp-22881,CdCl2,"['Cd', 'Cl']",3.0,-7.88006049,0.0004410310229494563,0.0,
28764,Cd2Co2O24P8,mp-1213911,CdCo(PO3)4,"['Cd', 'Co', 'P', 'O']",36.0,-245.45153067,0.00023607975045969454,6.217248937900877e-15,
31395,Cd1Co3O24P8,mp-1227073,CdCo3(PO3)8,"['Cd', 'Co', 'P', 'O']",36.0,-249.3315076,0.004538576730685584,0.0,
15687,Cd1Co3N1,mp-1017553,CdCo3N,"['Cd', 'Co', 'N']",5.0,-30.43892605,0.0006078228369137406,0.0,
9661,Cd2Cu4S8Si2,mp-6449,CdCu2SiS4,"['Cd', 'Cu', 'Si', 'S']",16.0,-70.33573847,5.6914930420148835e-05,0.0,
7505,Cd2Cu4Se8Si2,mp-1189879,CdCu2SiSe4,"['Cd', 'Cu', 'Si', 'Se']",16.0,-63.11554959,0.004234552211532794,0.0,
28308,Cd1Cu2Si1Te4,mp-1087540,CdCu2SiTe4,"['Cd', 'Cu', 'Si', 'Te']",8.0,-28.52317571,0.008798039203211427,0.0,
31760,Cd1Cu2S4Sn1,mp-1078292,CdCu2SnS4,"['Cd', 'Cu', 'Sn', 'S']",8.0,-32.94609962,0.008871399451394701,0.0,
11076,Cd2Cu2F8,mp-9075,CdCuF4,"['Cd', 'Cu', 'F']",12.0,-47.51160164,-3.552713678800501e-15,0.0,
7501,Cd1F2,mp-241,CdF2,"['Cd', 'F']",3.0,-11.26399151,1.8950910645187946e-05,0.0,
25479,Cd1Fe2O24P6Sb2,mp-703231,CdFe2Sb2(PO4)6,"['Cd', 'Fe', 'Sb', 'P', 'O']",35.0,-238.73895429,0.0009564608549101905,0.0,
10761,Cd2Fe2O24P6Sn2,mp-684826,CdFeSn(PO4)3,"['Cd', 'Fe', 'Sn', 'P', 'O']",36.0,-242.8762406,0.0003487040364591465,0.0,
22760,Cd2F10Ga2H28O14,mp-561283,CdGaH14O7F5,"['Cd', 'Ga', 'H', 'O', 'F']",56.0,-269.39815689,0.0005266522154023789,0.0,
907,Cd1Ga1Rh2,mp-861909,CdGaRh2,"['Cd', 'Ga', 'Rh']",4.0,-20.14658211,0.0828255456506346,0.0,
17015,Cd4H8O20S4,mp-1194602,CdH2SO5,"['Cd', 'H', 'S', 'O']",36.0,-192.24877729,0.0005041722287328909,0.0,
19974,Cd4H8O20Se4,mp-721583,CdH2SeO5,"['Cd', 'H', 'Se', 'O']",36.0,-177.18612517,0.001028044322915811,0.0,
10646,Cd8H24N8O40,mp-722862,CdH3NO5,"['Cd', 'H', 'N', 'O']",80.0,-420.39435559,0.004510923777343301,0.0,
18779,Br8Cd4H16O32,mp-24509,CdH4(BrO4)2,"['Cd', 'H', 'Br', 'O']",60.0,-259.00096107,5.482770703135742e-05,0.0,
7727,Cd4Cl12H16N4,mp-24356,CdH4NCl3,"['Cd', 'H', 'N', 'Cl']",36.0,-141.23120062,0.0075433748744027085,0.0,
17581,Cd1Cl2H6N2,mp-1226730,CdH6(NCl)2,"['Cd', 'H', 'N', 'Cl']",11.0,-48.35252778,0.001943816320133962,0.0,
1063,Br6C2Cd2H12N6,mp-695891,CdH6C(BrN)3,"['Cd', 'H', 'C', 'Br', 'N']",28.0,-134.56697183,0.00301994004882733,0.0,
20288,C2Cd2H12I6N6,mp-1192575,CdH6C(IN)3,"['Cd', 'H', 'C', 'I', 'N']",28.0,-131.41100296,0.0014793777539070518,0.0,
23230,Cd2Cl2H2O2,mp-644222,CdHClO,"['Cd', 'H', 'Cl', 'O']",8.0,-30.97079271,0.0015000476025388565,0.0,
23064,Cd2F2H2O2,mp-1226809,CdHOF,"['Cd', 'H', 'O', 'F']",8.0,-34.46409178,8.307095703141698e-05,0.0,
3225,Cd2Hg4O12S2,mp-560904,CdHg2SO6,"['Cd', 'Hg', 'S', 'O']",20.0,-90.18081531,1.205737597587131e-05,0.0,
6921,Cd2Hg4O12Se2,mp-556369,CdHg2SeO6,"['Cd', 'Hg', 'Se', 'O']",20.0,-82.69159741,0.00018096018847657547,0.0,
19831,As4Cd2Hg8I8,mp-570838,CdHg4(AsI2)2,"['Cd', 'Hg', 'As', 'I']",22.0,-41.17425272,0.0005066762349081877,0.0,
6950,As16Br24Cd4Hg24,mp-567910,CdHg6(As2Br3)2,"['Cd', 'Hg', 'As', 'Br']",68.0,-150.18682608,0.0008481620387179589,0.0,
21261,Cd4Hg24I24Sb16,mp-1227680,CdHg6(Sb2I3)2,"['Cd', 'Hg', 'Sb', 'I']",68.0,-129.54359567,0.0022741140518558467,0.0,