,Composition,MaterialId,Reduced Formula,Elements,NSites,Corrected Energy,Decomposition Energy Per Atom All,Decomposition Energy Per Atom MP,Directory
16806,As4Br4Cd4Hg4,mp-569454,CdHgAsBr,"['Cd', 'Hg', 'As', 'Br']",16.0,-36.02097176,0.002660464035644239,0.0,
7797,Cd1Hg1O2,mp-2695851,CdHgO2,"['Cd', 'Hg', 'O']",4.0,-13.90271542,0.0,0.0,
27283,Cd10I20,mp-571579,CdI2,"['Cd', 'I']",30.0,-57.30239925,0.025742795436604737,0.0,
9843,Cd2In4O8,mp-19803,CdIn2O4,"['Cd', 'In', 'O']",14.0,-72.83255367,-2.6645352591003757e-15,0.0,
23818,Cd1In1Pd2,mp-862374,CdInPd2,"['Cd', 'In', 'Pd']",4.0,-15.92720154,0.0,0.0,
17625,Cd1In1Rh2,mp-977367,CdInRh2,"['Cd', 'In', 'Rh']",4.0,-19.5888046,0.0,0.0,
17237,Cd2Mo2O8,mp-19039,CdMoO4,"['Cd', 'Mo', 'O']",12.0,-73.07054472,0.022197572364907714,0.0,
16388,Cd4Mo4O24P4,mp-553877,CdMoPO6,"['Cd', 'Mo', 'P', 'O']",36.0,-238.1447378,6.700108506230151e-06,0.0,
10210,Cd12Ni12,mp-985556,CdNi,"['Cd', 'Ni']",24.0,-80.7360508,0.0009989260172527104,0.0,
16853,Cd2Ni2O24P8,mp-1213935,CdNi(PO3)4,"['Cd', 'Ni', 'P', 'O']",36.0,-240.7939927,0.0001107849175348008,0.0,
3504,Cd1N1Ni3,mp-1017554,CdNi3N,"['Cd', 'Ni', 'N']",5.0,-26.91653992,0.00039831177636706627,0.0,
5282,Cd1O1,mp-1132,CdO,"['Cd', 'O']",2.0,-7.91327389,0.0002485301586911959,0.0,
13268,Cd4P56Pb4,mp-1214259,CdP14Pb,"['Cd', 'P', 'Pb']",64.0,-324.51608717,0.004538467222897857,-2.6645352591003757e-15,
3226,Cd8P16,mp-913,CdP2,"['Cd', 'P']",24.0,-96.91508896,0.0,0.0,
6930,Cd2H16O20P4,mp-1197015,CdP2(H4O5)2,"['Cd', 'P', 'H', 'O']",42.0,-238.53488287,0.0016077227752981926,-2.1316282072803006e-14,
16096,Cd4O44P16,mp-772228,CdP4O11,"['Cd', 'P', 'O']",64.0,-435.14540555,0.0017167315185542265,0.0,
2327,Cd6H6O18P6,mp-1204110,CdPHO3,"['Cd', 'P', 'H', 'O']",36.0,-201.77186399,0.00027477754014704203,0.0,
19834,Cd1P1Pd5,mp-1078100,CdPPd5,"['Cd', 'P', 'Pd']",7.0,-35.41792132,0.0,0.0,
21243,Cd1P1Pt5,mp-1025187,CdPPt5,"['Cd', 'P', 'Pt']",7.0,-39.05406068,9.982028459809555e-06,0.0,
17975,Cd2P2S6,mp-5328,CdPS3,"['Cd', 'P', 'S']",10.0,-41.54463506,0.0,0.0,
21327,Cd2P2Se6,mp-1079559,CdPSe3,"['Cd', 'P', 'Se']",10.0,-36.70865545,0.002212302290038881,0.0,
23594,Cd1Cl2O2Pb2,mp-1077904,CdPb2(ClO)2,"['Cd', 'Pb', 'Cl', 'O']",7.0,-30.24540574,0.0015098951576453246,0.0,
30323,Cd1F6Pb1,mp-37216,CdPbF6,"['Cd', 'Pb', 'F']",8.0,-32.22942323,0.0001964134191894118,0.0,
13563,Cd8O24Pb8,mp-685257,CdPbO3,"['Cd', 'Pb', 'O']",40.0,-194.64928125,0.0002499145507810496,0.0,
22875,Cd1Pd1,mp-1696,CdPd,"['Cd', 'Pd']",2.0,-6.92294239,0.0021969129864496395,-4.440892098500626e-16,
13071,Au1Cd1Pd2,mp-1183633,CdPd2Au,"['Cd', 'Pd', 'Au']",4.0,-15.74221318,0.006515122867024825,0.0,
1045,Cd1Pd3,mp-865985,CdPd3,"['Cd', 'Pd']",4.0,-17.53687292,0.0,0.0,
21846,Cd1Pd5Se1,mp-1025371,CdPd5Se,"['Cd', 'Pd', 'Se']",7.0,-32.35559236,0.0,0.0,
9231,Cd1F6Pd1,mp-13984,CdPdF6,"['Cd', 'Pd', 'F']",8.0,-30.42952088,0.005319838730469151,0.0,
16953,Cd1Pt1,mp-1194,CdPt,"['Cd', 'Pt']",2.0,-7.60628646,0.0021386475177003206,0.0,
14374,Cd1Pt3,mp-1067236,CdPt3,"['Cd', 'Pt']",4.0,-19.85202397,5.9631737058474243e-05,0.0,
13602,Cd1F6Pt1,mp-5858,CdPtF6,"['Cd', 'Pt', 'F']",8.0,-31.76697839,0.0,0.0,
26171,Cd1F6Rh1,mp-15638,CdRhF6,"['Cd', 'Rh', 'F']",8.0,-33.60319006,3.3939796142412604e-05,0.0,
22920,Cd2S2,mp-672,CdS,"['Cd', 'S']",4.0,-12.64803867,0.0,0.0,
6378,Cd4S8,mp-1095440,CdS2,"['Cd', 'S']",12.0,-40.67215458,0.03995803482096383,0.0,
6740,Cd4O28S8,mp-17586,CdS2O7,"['Cd', 'S', 'O']",40.0,-227.1084469,2.4920639648762233e-05,0.0,
9082,Cd2O8S2,mp-8459,CdSO4,"['Cd', 'S', 'O']",12.0,-66.17547316,0.0,0.0,
31101,Cd8Sb8,mp-1321,CdSb,"['Cd', 'Sb']",16.0,-41.0137545,0.0,0.0,
11451,Cd4F112O4Sb20,mp-1198900,CdSb5OF28,"['Cd', 'Sb', 'O', 'F']",140.0,-608.77960962,0.03402013781705904,0.0,
22602,Au1Cd1Sb1,mp-16246,CdSbAu,"['Cd', 'Sb', 'Au']",3.0,-8.67885007,0.0006302251814780391,0.0,
27187,Cd1Se1,mp-2691,CdSe,"['Cd', 'Se']",2.0,-5.65802669,0.0013518970043948642,0.0,
9785,Cd4Se8,mp-1095493,CdSe2,"['Cd', 'Se']",12.0,-35.65475703,0.014975661087165637,0.0,
21019,Cd2O10Se4,mp-9178,CdSe2O5,"['Cd', 'Se', 'O']",16.0,-79.73077426,1.2548538817824806e-05,4.440892098500626e-15,
25280,Cd8O24Se8,mp-559203,CdSeO3,"['Cd', 'Se', 'O']",40.0,-194.26864573,3.603570507770826e-05,8.881784197001252e-16,
3786,Cd2O8Se2,mp-761036,CdSeO4,"['Cd', 'Se', 'O']",12.0,-58.7206862,0.0007969579020183915,0.0,
31503,As4Cd2Si2,mp-3078,CdSiAs2,"['Cd', 'Si', 'As']",8.0,-32.30455584,0.0,0.0,
12646,Cd12O36Si12,mp-560560,CdSiO3,"['Cd', 'Si', 'O']",60.0,-382.15504575,1.2860546874549073e-05,0.0,
21023,As4Cd2Sn2,mp-3829,CdSnAs2,"['Cd', 'Sn', 'As']",8.0,-29.55564796,0.0,0.0,
12805,Au1Cd1Sn1,mp-1226720,CdSnAu,"['Cd', 'Sn', 'Au']",3.0,-8.79078363,0.0,0.0,
13582,Cd1F6Sn1,mp-13907,CdSnF6,"['Cd', 'Sn', 'F']",8.0,-35.37548793,0.0,0.0,
16498,Cd2O6Sn2,mp-754329,CdSnO3,"['Cd', 'Sn', 'O']",10.0,-53.88240844,3.1867617193981346e-06,0.0,
19752,Cd4P56Sn4,mp-1199087,CdSnP14,"['Cd', 'Sn', 'P']",64.0,-325.34216739,0.0044240279028322504,0.0,
2990,Cd2P4Sn2,mp-5213,CdSnP2,"['Cd', 'Sn', 'P']",8.0,-32.28022525,0.0,0.0,
9653,Cd1Rh2Sn1,mp-861877,CdSnRh2,"['Cd', 'Sn', 'Rh']",4.0,-21.0174473,0.004619402874756595,0.0,
8586,Cd2Sb4Sn2,mp-10063,CdSnSb2,"['Cd', 'Sn', 'Sb']",8.0,-26.69646784,0.0,0.0,
16450,Cd1Te1,mp-406,CdTe,"['Cd', 'Te']",2.0,-4.98281294,0.00039189654663118745,0.0,
11386,Cd2O20Pb12Te2,mp-1203009,CdTe(Pb3O5)2,"['Cd', 'Te', 'Pb', 'O']",36.0,-192.63525748,0.0004917254090708312,0.0,
19712,Cd2Mo2O12Te2,mp-555560,CdTeMoO6,"['Cd', 'Te', 'Mo', 'O']",18.0,-105.71275393,0.000173043521050964,0.0,
14476,Cd8O24Te8,mp-28290,CdTeO3,"['Cd', 'Te', 'O']",40.0,-195.95486189,-4.440892098500626e-15,8.881784197001252e-16,
24413,Cd2O8W2,mp-19387,CdWO4,"['Cd', 'W', 'O']",12.0,-76.87810278,0.0005045117822266576,0.0,
8954,Ce2,mp-567332,Ce,['Ce'],2.0,-11.86617831,0.0,0.0,
7753,Al40Ce2Cr4,mp-3910,Ce(Al10Cr)2,"['Ce', 'Al', 'Cr']",46.0,-208.15773668,0.0,0.0,
23555,Al40Ce2V4,mp-1197724,Ce(Al10V)2,"['Ce', 'Al', 'V']",46.0,-208.36776956,0.0005432971841035084,0.0,
1344,Al8Ce1Cu4,mp-20003,Ce(Al2Cu)4,"['Ce', 'Al', 'Cu']",13.0,-56.28350438,0.00018340706730857192,0.0,
14566,Al8Ce1Fe4,mp-16486,Ce(Al2Fe)4,"['Ce', 'Al', 'Fe']",13.0,-75.1448368,-1.0658141036401503e-14,0.0,
14579,Al32Ce4Co8,mp-1194542,Ce(Al4Co)2,"['Ce', 'Al', 'Co']",44.0,-221.28936096,0.0,0.0,
21816,Al32Ce4Fe8,mp-607077,Ce(Al4Fe)2,"['Ce', 'Al', 'Fe']",44.0,-229.78100822,0.0,0.0,
22430,Al20Ce2Fe4,mp-1193938,Ce(Al5Fe)2,"['Ce', 'Al', 'Fe']",26.0,-129.94162816,0.0001273882445085306,0.0,
29349,Al20Ce2Ru4,mp-31364,Ce(Al5Ru)2,"['Ce', 'Al', 'Ru']",26.0,-137.28358828,0.0004881395087235063,9.769962616701378e-15,
28344,Al4Au4Ce2,mp-1078886,Ce(AlAu)2,"['Ce', 'Al', 'Au']",10.0,-46.91291705,0.0,0.0,
10728,Al9Br36Ce3,mp-1214275,Ce(AlBr4)3,"['Ce', 'Al', 'Br']",48.0,-173.89312941,0.008036552106934103,0.0,
16160,Al2Ce1Ga2,mp-3303,Ce(AlGa)2,"['Ce', 'Al', 'Ga']",5.0,-21.6283571,0.0,0.0,
25526,Al2Ce1Zn2,mp-3286,Ce(AlZn)2,"['Ce', 'Al', 'Zn']",5.0,-17.85781743,0.0,0.0,
4799,As12Ce1Os4,mp-1189855,Ce(As3Os)4,"['Ce', 'As', 'Os']",17.0,-112.92447897,0.0,0.0,
19091,As12Ce1Ru4,mp-1021508,Ce(As3Ru)4,"['Ce', 'As', 'Ru']",17.0,-107.13568674,0.015619285859375331,0.0,
7504,As4Ce2Rh4,mp-1087498,Ce(AsRh)2,"['Ce', 'As', 'Rh']",10.0,-69.18706459,0.00026611854640723465,0.0,
5504,B4C4Ce2,mp-20908,Ce(BC)2,"['Ce', 'B', 'C']",10.0,-79.8279583,0.0,0.0,
5044,B24Ce8H96,mp-2646929,Ce(BH4)3,"['Ce', 'B', 'H']",128.0,-567.72889036,-1.7763568394002505e-15,-1.7763568394002505e-15,
20624,B4Ce2Ir4,mp-8680,Ce(BIr)2,"['Ce', 'B', 'Ir']",10.0,-81.11359236,0.0,-1.4210854715202004e-14,
22725,B8Ce2Ir8,mp-1190481,Ce(BIr)4,"['Ce', 'B', 'Ir']",18.0,-146.12129923,0.0,0.0,
4203,B12Ce4O24,mp-558621,Ce(BO2)3,"['Ce', 'B', 'O']",40.0,-332.40912103,0.04141404817742789,0.0,
315,B4Ce2Os4,mp-1080734,Ce(BOs)2,"['Ce', 'B', 'Os']",10.0,-88.29103363,0.0,0.0,
27261,B8Ce2Os8,mp-1188930,Ce(BOs)4,"['Ce', 'B', 'Os']",18.0,-162.76168957,0.0,0.0,
26146,B16Ce4Ru16,mp-1201565,Ce(BRu)4,"['Ce', 'B', 'Ru']",36.0,-298.09489961,0.0,7.105427357601002e-15,
16171,Cd40Ce2Pd4,mp-1197565,Ce(Cd10Pd)2,"['Ce', 'Cd', 'Pd']",46.0,-77.5052042,0.0,0.0,
7288,Ce2Cl8O32,mp-768918,Ce(ClO4)4,"['Ce', 'Cl', 'O']",42.0,-198.92857438,0.00027884544456835414,0.0,
15940,B6Ce1Co12,mp-1205398,Ce(Co2B)6,"['Ce', 'Co', 'B']",19.0,-138.07095366,0.1280754970676794,0.0,
6106,As2Ce1Co2,mp-568182,Ce(CoAs)2,"['Ce', 'Co', 'As']",5.0,-33.14262972,0.05186727499414001,0.0,
23513,Ce1Co2Ge2,mp-20933,Ce(CoGe)2,"['Ce', 'Co', 'Ge']",5.0,-32.30091561,0.0,0.0,
29291,Ce1Co2P2,mp-5820,Ce(CoP)2,"['Ce', 'Co', 'P']",5.0,-36.04676085,0.03310769938476543,2.5757174171303632e-14,
22806,Ce1Co2Si2,mp-3437,Ce(CoSi)2,"['Ce', 'Co', 'Si']",5.0,-34.82611075,0.0,0.0,
23933,B6Ce1Cr2,mp-2873,Ce(CrB3)2,"['Ce', 'Cr', 'B']",9.0,-70.87231831,0.00018945861111152595,0.0,
20169,Ce6Cu24P12,mp-1214035,Ce(Cu2P)2,"['Ce', 'Cu', 'P']",42.0,-220.78765201,0.04235746760509773,0.0,
7902,Ce1Cu2Si2,mp-5452,Ce(CuSi)2,"['Ce', 'Cu', 'Si']",5.0,-27.86039596,0.0029226756757800842,0.0,
20562,Ce2Er6S12,mp-1189064,Ce(ErS2)3,"['Ce', 'Er', 'S']",20.0,-130.27270676,0.02848441602831997,0.0,
18596,As12Ce1Fe4,mp-1021509,Ce(FeAs3)4,"['Ce', 'Fe', 'As']",17.0,-102.75410397,0.000691620072386101,-2.1316282072803006e-14,
21410,B8Ce2Fe8,mp-1006322,Ce(FeB)4,"['Ce', 'Fe', 'B']",18.0,-141.93196427,0.0020470425086802635,0.0,
13773,Ce1Fe2Ge2,mp-21882,Ce(FeGe)2,"['Ce', 'Fe', 'Ge']",5.0,-34.37091016,0.0,0.0,
12756,Ce1Fe2P2,mp-6957,Ce(FeP)2,"['Ce', 'Fe', 'P']",5.0,-38.67778168,0.0,0.0,
606,Ce1Fe4P12,mp-16272,Ce(FeP3)4,"['Ce', 'Fe', 'P']",17.0,-115.80461868,0.0005385546403982033,2.6645352591003757e-15,
18947,Ce1Fe4Sb12,mp-1181682,Ce(FeSb3)4,"['Ce', 'Fe', 'Sb']",17.0,-92.94682758,-2.6645352591003757e-15,-2.6645352591003757e-15,
22239,Ce1Fe2Si2,mp-3035,Ce(FeSi)2,"['Ce', 'Fe', 'Si']",5.0,-37.01188093,0.0,0.0,
16093,Ce4Co8Ga32,mp-1196595,Ce(Ga4Co)2,"['Ce', 'Ga', 'Co']",44.0,-194.32003222,0.010217620998757226,0.0,
10720,Ce2Ga4Pd4,mp-1095071,Ce(GaPd)2,"['Ce', 'Ga', 'Pd']",10.0,-52.36043144,0.0,0.0,
20060,Ce1Ge4Rh6,mp-1103596,Ce(Ge2Rh3)2,"['Ce', 'Ge', 'Rh']",11.0,-76.79011144,0.0,0.0,
2943,Ce1Ge12Pt4,mp-1190040,Ce(Ge3Pt)4,"['Ce', 'Ge', 'Pt']",17.0,-92.33742426,0.0,0.0,
19317,Au2Ce1Ge2,mp-1068908,Ce(GeAu)2,"['Ce', 'Ge', 'Au']",5.0,-24.24439969,0.0,0.0,
10330,Ce2Ge4Ir4,mp-510315,Ce(GeIr)2,"['Ce', 'Ge', 'Ir']",10.0,-73.57519538,0.0,0.0,
21341,Ce2Ge4Pt4,mp-20400,Ce(GePt)2,"['Ce', 'Ge', 'Pt']",10.0,-63.63624677,0.0,0.0,
30462,Ce1Ge2Rh2,mp-5577,Ce(GeRh)2,"['Ce', 'Ge', 'Rh']",5.0,-34.19241736,1.2434497875801753e-14,1.2434497875801753e-14,
7353,Ce1Ge2Ru2,mp-22343,Ce(GeRu)2,"['Ce', 'Ge', 'Ru']",5.0,-36.97539639,0.7780248174589852,0.0,
28924,Ce2Ho6S12,mp-1189290,Ce(HoS2)3,"['Ce', 'Ho', 'S']",20.0,-130.35811006,0.022089846121094325,0.0,
27543,Ce2I8O24,mp-23493,Ce(IO3)4,"['Ce', 'I', 'O']",34.0,-171.78428827,0.0,0.0,
9072,Ce2Lu6S12,mp-1105574,Ce(LuS2)3,"['Ce', 'Lu', 'S']",20.0,-130.08401188,0.0,0.0,
24318,Al8Ce1Mn4,mp-16487,Ce(MnAl2)4,"['Ce', 'Mn', 'Al']",13.0,-76.84374422,0.0,0.0,
4830,Ce1Ge2Mn2,mp-21089,Ce(MnGe)2,"['Ce', 'Mn', 'Ge']",5.0,-35.7616715,0.0,0.0,
19950,Ce1Mn2Si2,mp-2965,Ce(MnSi)2,"['Ce', 'Mn', 'Si']",5.0,-38.03513139,0.0,0.0,
16435,Ce1Mo6S8,mp-38564,Ce(Mo3S4)2,"['Ce', 'Mo', 'S']",15.0,-117.90912039,0.012155682496121756,2.842170943040401e-14,
13510,B12Ce2Ni24,mp-21695,Ce(Ni2B)6,"['Ce', 'Ni', 'B']",38.0,-245.60711085,0.0009281292300578059,0.0,
7478,As4Ce2Ni4,mp-610645,Ce(NiAs)2,"['Ce', 'Ni', 'As']",10.0,-61.71383967,0.024004826945312807,0.0,
10823,Ce1Ge2Ni2,mp-3325,Ce(NiGe)2,"['Ce', 'Ni', 'Ge']",5.0,-30.07640199,5.329070518200751e-15,0.0,
18763,Ce1Ni2P2,mp-569697,Ce(NiP)2,"['Ce', 'Ni', 'P']",5.0,-33.36801106,0.005702292394531128,0.0,
13289,Ce2Ni4Sb4,mp-1078924,Ce(NiSb)2,"['Ce', 'Ni', 'Sb']",10.0,-57.75790614,0.03689336498632745,0.0,
14832,Ce2Ni4Sn4,mp-1078794,Ce(NiSn)2,"['Ce', 'Ni', 'Sn']",10.0,-56.04171571,0.056033685730648486,0.0,
29246,Ce1Os4P12,mp-1021505,Ce(P3Os)4,"['Ce', 'P', 'Os']",17.0,-126.44758015,0.007803871863511169,0.0,
10640,Ce1P12Ru4,mp-10069,Ce(P3Ru)4,"['Ce', 'P', 'Ru']",17.0,-119.62071659,0.0,0.0,
16488,Ce2Ir4P4,mp-1079211,Ce(PIr)2,"['Ce', 'P', 'Ir']",10.0,-79.33899513,3.552713678800501e-15,3.552713678800501e-15,
12080,Ce2O18P6,mp-5843,Ce(PO3)3,"['Ce', 'P', 'O']",26.0,-198.32268567,0.009404282749382986,-5.684341886080802e-14,
20380,Ce8O96P32,mp-1019593,Ce(PO3)4,"['Ce', 'P', 'O']",136.0,-1021.15136393,0.00165624522978014,0.0,
15585,Ce1P2Pd2,mp-1207218,Ce(PPd)2,"['Ce', 'P', 'Pd']",5.0,-31.92293804,1.7763568394002505e-15,2.6645352591003757e-15,
4782,Ce4P8Pt16,mp-607725,Ce(PPt2)2,"['Ce', 'P', 'Pt']",28.0,-188.30616233,0.014637929459256682,0.0,
11551,Ce2P4Rh4,mp-505502,Ce(PRh)2,"['Ce', 'P', 'Rh']",10.0,-74.1885712,3.552713678800501e-15,0.0,
8745,Ce1P2Ru2,mp-574244,Ce(PRu)2,"['Ce', 'P', 'Ru']",5.0,-40.42957353,3.552713678800501e-15,3.552713678800501e-15,
10419,Ce1Re4Si2,mp-27861,Ce(Re2Si)2,"['Ce', 'Re', 'Si']",7.0,-69.83334603,0.0,0.0,
14483,Ce8O64S16,mp-21947,Ce(SO4)2,"['Ce', 'S', 'O']",88.0,-600.12947525,0.0,0.0,
5998,Ce1Os4Sb12,mp-1105726,Ce(Sb3Os)4,"['Ce', 'Sb', 'Os']",17.0,-103.38550614,0.019854350019531175,0.0,
21221,Ce1Ru4Sb12,mp-1189811,Ce(Sb3Ru)4,"['Ce', 'Sb', 'Ru']",17.0,-98.37253123,0.0012035139292274621,0.0,
19873,Ce4O24Se8,mp-541090,Ce(SeO3)2,"['Ce', 'Se', 'O']",36.0,-230.97171566,0.0,0.0,
2782,Ce8O64Se16,mp-21838,Ce(SeO4)2,"['Ce', 'Se', 'O']",88.0,-538.2527177,0.004937439799362231,0.0,
27558,Au2Ce1Si2,mp-5173,Ce(SiAu)2,"['Ce', 'Si', 'Au']",5.0,-26.23961319,0.0,0.0,
8710,Au4Ce1Si2,mp-569496,Ce(SiAu2)2,"['Ce', 'Si', 'Au']",7.0,-33.1145606,0.0043817934709826645,0.0,
16396,Ce2Ir4Si4,mp-21900,Ce(SiIr)2,"['Ce', 'Si', 'Ir']",10.0,-79.50364825,0.0,0.0,
29440,Ce1Ni2Si2,mp-4537,Ce(SiNi)2,"['Ce', 'Si', 'Ni']",5.0,-32.38425911,0.0,0.0,
22315,Ce1Os2Si2,mp-4767,Ce(SiOs)2,"['Ce', 'Si', 'Os']",5.0,-42.8281591,0.0,0.0,
4530,Ce1Pd2Si2,mp-3826,Ce(SiPd)2,"['Ce', 'Si', 'Pd']",5.0,-31.69403831,0.0,0.0,
3913,Ce2Pt4Si4,mp-22438,Ce(SiPt)2,"['Ce', 'Si', 'Pt']",10.0,-68.79099153,2.6645352591003757e-15,0.0,
5113,Ce1Rh2Si2,mp-4090,Ce(SiRh)2,"['Ce', 'Si', 'Rh']",5.0,-36.82170574,0.0,0.0,
9680,Ce1Ru2Si2,mp-3566,Ce(SiRu)2,"['Ce', 'Si', 'Ru']",5.0,-39.76308307,0.0,0.0,
6785,Ce1Ru4Sn6,mp-20752,Ce(Sn3Ru2)2,"['Ce', 'Sn', 'Ru']",11.0,-70.92135671,0.0,0.0,
274,Ce2Pd4Sn4,mp-1080026,Ce(SnPd)2,"['Ce', 'Sn', 'Pd']",10.0,-55.84014916,0.004439673843754655,0.0,
788,Al40Ce2Ti4,mp-567387,Ce(TiAl10)2,"['Ce', 'Ti', 'Al']",46.0,-205.17954738,0.00029594849441139104,1.5987211554602254e-14,
27108,Ce2S12Y6,mp-1006324,Ce(YS2)3,"['Ce', 'Y', 'S']",20.0,-141.67150917,0.008552687862304786,0.0,
12306,Ce2Ir4Zn40,mp-1199912,Ce(Zn10Ir)2,"['Ce', 'Zn', 'Ir']",46.0,-108.17222095,0.0,0.0,
2603,Au4Ce1Zn2,mp-1077954,Ce(ZnAu2)2,"['Ce', 'Zn', 'Au']",7.0,-24.97349955,0.0,0.0,
10363,Ce2P6Zn6,mp-1213847,Ce(ZnP)3,"['Ce', 'Zn', 'P']",14.0,-60.13490597,0.0,0.0,
14261,Ce10O3Si8,mp-555617,Ce10Si8O3,"['Ce', 'Si', 'O']",21.0,-147.35665851,0.0,0.0,
29999,Ce11Ge6Ni4,mp-1213990,Ce11(Ni2Ge3)2,"['Ce', 'Ni', 'Ge']",21.0,-128.78639311,0.005902488845477727,0.0,
19767,Ce11In9Ni4,mp-1192200,Ce11In9Ni4,"['Ce', 'In', 'Ni']",24.0,-122.52164506,0.013896501383057647,0.0,
29543,C15Ce12Re5,mp-1203675,Ce12(ReC3)5,"['Ce', 'Re', 'C']",32.0,-280.75554603,0.003419987156568993,0.0,
30555,C12Ce24I34,mp-684020,Ce12C6I17,"['Ce', 'C', 'I']",70.0,-380.60810772,0.010092197191963415,0.0,
21972,B16Ce30N50,mp-28370,Ce15B8N25,"['B', 'N', 'Ce']",96.0,-836.98650517,0.0,0.0,
8596,Ce32Ru18,mp-570369,Ce16Ru9,"['Ce', 'Ru']",50.0,-373.22657651,0.0012430059328121246,-8.881784197001252e-16,
30537,Al18Ce4Ir6,mp-1213885,Ce2(Al3Ir)3,"['Ce', 'Al', 'Ir']",28.0,-167.64432824,0.0,0.0,
12229,Al18Ce4Rh6,mp-1213916,Ce2(Al3Rh)3,"['Ce', 'Al', 'Rh']",28.0,-157.47533913,-8.881784197001252e-16,0.0,
30546,Al60Ce8Ru12,mp-567554,Ce2(Al5Ru)3,"['Ce', 'Al', 'Ru']",80.0,-425.72168047,0.007767476791014971,0.0,
1671,B6Ce2Rh9,mp-1227070,Ce2(B2Rh3)3,"['Ce', 'B', 'Rh']",17.0,-128.69307043,1.3322676295501878e-14,0.0,
18290,C3Ce2N6,mp-1213867,Ce2(CN2)3,"['Ce', 'C', 'N']",11.0,-97.26524451,0.0021209159055395332,0.0,
31512,Ce4Ga18Ir6,mp-1213877,Ce2(Ga3Ir)3,"['Ce', 'Ga', 'Ir']",28.0,-150.10004974,0.0,0.0,
21876,Ce4Ga18Rh6,mp-1213907,Ce2(Ga3Rh)3,"['Ce', 'Ga', 'Rh']",28.0,-141.88290785,2.6645352591003757e-15,2.6645352591003757e-15,
6354,Ce4Ga18Ru6,mp-1214327,Ce2(Ga3Ru)3,"['Ce', 'Ga', 'Ru']",28.0,-148.97972795,4.440892098500626e-15,0.0,
28265,Ce2In3Sn3,mp-1227310,Ce2(InSn)3,"['Ce', 'In', 'Sn']",8.0,-36.04391246,0.0,0.0,
27320,B12Ce4Re6,mp-1190580,Ce2(ReB2)3,"['Ce', 'Re', 'B']",22.0,-190.03577886,0.0,0.0,
1807,Ce2Pd21Si6,mp-1193751,Ce2(Si2Pd7)3,"['Ce', 'Si', 'Pd']",29.0,-173.95924992,0.04711659796110457,-1.0658141036401503e-14,
3736,Ce2Sn3Tl3,mp-1226905,Ce2(TlSn)3,"['Ce', 'Tl', 'Sn']",8.0,-34.19677751,0.0043041571738546835,0.0,
21073,Ce20Mg19Zn81,mp-569703,Ce20Mg19Zn81,"['Ce', 'Mg', 'Zn']",120.0,-282.83031349,0.0,0.0,
14872,Bi7C12Ce21Fe8,mp-647805,Ce21Fe8Bi7C12,"['Ce', 'Fe', 'Bi', 'C']",48.0,-353.1179614,0.006734619677733811,0.0,
20725,Al16Ce2Pt9,mp-570981,Ce2Al16Pt9,"['Ce', 'Al', 'Pt']",27.0,-153.40320551,0.07064905446180614,0.0,
19979,Al6Ce4Ge8,mp-18232,Ce2Al3Ge4,"['Ce', 'Al', 'Ge']",18.0,-91.61303613,0.0,0.0,
22251,Al3Ce6Ga3Ni6,mp-1227010,Ce2AlGaNi2,"['Ce', 'Al', 'Ga', 'Ni']",18.0,-101.27822933,0.0,0.0,
25440,Al2Ce4Ge12,mp-1105912,Ce2AlGe6,"['Ce', 'Al', 'Ge']",18.0,-94.57978795,0.0,0.0,
22202,Al6Ce12Ru6,mp-1190720,Ce2AlRu,"['Ce', 'Al', 'Ru']",24.0,-161.31402985,0.0,0.0,
10569,Al2Ce4Ru4,mp-1078316,Ce2AlRu2,"['Ce', 'Al', 'Ru']",10.0,-73.48753606,0.0,0.0,
29549,B4Ce4Ir10,mp-30898,Ce2B2Ir5,"['Ce', 'B', 'Ir']",18.0,-152.49578234,0.0,0.0,
25406,Bi2Ce4,mp-1077367,Ce2Bi,"['Ce', 'Bi']",6.0,-34.79297764,0.0,0.0,
28319,Bi1Ce2O2,mp-23003,Ce2BiO2,"['Ce', 'Bi', 'O']",5.0,-38.63547013,0.0,0.0,
23554,Br24Ce16N8,mp-570537,Ce2Br3N,"['Ce', 'Br', 'N']",48.0,-286.55573267,0.058630676186522734,0.0,
1065,Br10Ce4,mp-1104603,Ce2Br5,"['Ce', 'Br']",14.0,-65.48808475,0.1007550243094304,0.0,
19947,C1Ce2N2O2,mp-1025352,Ce2C(NO)2,"['Ce', 'C', 'N', 'O']",7.0,-61.88140207,0.006519274898437288,0.0,
31829,C4Ce4Cl2,mp-1078814,Ce2C2Cl,"['Ce', 'C', 'Cl']",10.0,-73.27121047,0.0,-5.3290705182007514e-14,
26444,C12Ce8,mp-20181,Ce2C3,"['Ce', 'C']",20.0,-163.32154712,0.0,0.0,
29956,Cd2Ce4Pd4,mp-11965,Ce2CdPd2,"['Ce', 'Cd', 'Pd']",10.0,-52.89801656,0.0,0.0,
1675,Cd2Ce4Pt4,mp-11964,Ce2CdPt2,"['Ce', 'Cd', 'Pt']",10.0,-59.26374202,-1.0658141036401503e-14,0.0,
96,Cd1Ce2Sb4,mp-1226843,Ce2CdSb4,"['Ce', 'Cd', 'Sb']",7.0,-34.09308878,0.0,0.0,
29310,Ce2Co12P7,mp-1191328,Ce2Co12P7,"['Ce', 'Co', 'P']",21.0,-151.34033807,0.013325630728934001,0.0,
20938,Ce2Co17,mp-1105572,Ce2Co17,"['Ce', 'Co']",19.0,-134.32155843,0.0,0.0,
8677,Ce4Co6Ge10,mp-1188584,Ce2Co3Ge5,"['Ce', 'Co', 'Ge']",20.0,-124.64220575,0.0,0.0,
12440,Ce4Co6Si10,mp-1189037,Ce2Co3Si5,"['Ce', 'Co', 'Si']",20.0,-136.11291991,0.0,0.0,
539,B8Ce8Co20,mp-574273,Ce2Co5B2,"['Ce', 'Co', 'B']",36.0,-259.24785203,0.39537578979573684,0.0,
29636,Ce2Co1Ru3,mp-1226767,Ce2CoRu3,"['Ce', 'Co', 'Ru']",6.0,-48.46934466,0.001800464574655436,0.0,
364,Ce2Cr1N3,mp-9277,Ce2CrN3,"['Ce', 'Cr', 'N']",6.0,-54.10510224,0.0,0.0,
30525,Ce2Cu1Si3,mp-1226885,Ce2CuSi3,"['Ce', 'Cu', 'Si']",6.0,-36.18651365,0.0,0.0,
14836,Ce2Fe12P7,mp-541196,Ce2Fe12P7,"['Ce', 'Fe', 'P']",21.0,-166.4766742,0.010747040978422717,0.0,
31162,C1Ce2Fe2Si2,mp-1025289,Ce2Fe2Si2C,"['Ce', 'Fe', 'Si', 'C']",7.0,-53.09773973,0.0,0.0,
2323,Ce2Fe1Ru3,mp-1226857,Ce2FeRu3,"['Ce', 'Fe', 'Ru']",6.0,-49.83191736,0.004030771624350393,0.0,
14020,Ce4Cu2Ga24,mp-5981,Ce2Ga12Cu,"['Ce', 'Ga', 'Cu']",30.0,-114.68613784,0.0,0.0,
25787,Ce4Ga24Ni2,mp-567195,Ce2Ga12Ni,"['Ce', 'Ga', 'Ni']",30.0,-119.64287598,0.013952790675548776,0.0,
23827,Ce4Ga24Pd2,mp-568885,Ce2Ga12Pd,"['Ce', 'Ga', 'Pd']",30.0,-119.28295154,0.0,0.0,
24055,Ce2Cu1Ga3,mp-1226999,Ce2Ga3Cu,"['Ce', 'Ga', 'Cu']",6.0,-27.97718831,0.008533621313883799,0.0,
176,Ce2Ga7Pd1,mp-1226980,Ce2Ga7Pd,"['Ce', 'Ga', 'Pd']",10.0,-44.29068373,-1.5987211554602254e-14,-1.5987211554602254e-14,
17056,Ce8Ge16Pt28,mp-567664,Ce2Ge4Pt7,"['Ce', 'Ge', 'Pt']",52.0,-332.47688284,0.0,0.0,