,Composition,MaterialId,Reduced Formula,Elements,NSites,Corrected Energy,Decomposition Energy Per Atom All,Decomposition Energy Per Atom MP,Directory
12067,Ce7O6Se12Ti4,mp-1227542,Ce7Ti4(Se2O)6,"['Ce', 'Ti', 'Se', 'O']",29.0,-207.5067198,0.009338676288074055,0.0,
16841,C16Ce16Cl10,mp-583042,Ce8C8Cl5,"['Ce', 'C', 'Cl']",42.0,-302.57839359,0.009995674797619536,3.552713678800501e-15,
16441,Ce16Ni36P22,mp-571125,Ce8Ni18P11,"['Ce', 'Ni', 'P']",74.0,-493.41994655,0.0,0.0,
13843,B12Ce8Re13,mp-1202101,Ce8Re13B12,"['Ce', 'Re', 'B']",33.0,-302.45877607,0.0,0.0,
5656,Ag4Ce2,mp-1206322,CeAg2,"['Ce', 'Ag']",6.0,-24.30656809,0.0,0.0,
21001,Ag12Ce2N18O54,mp-560230,CeAg6(NO3)9,"['Ce', 'Ag', 'N', 'O']",86.0,-505.2394177,0.0064489663789979446,0.0,
25620,Ag4As8Ce4,mp-985705,CeAgAs2,"['Ce', 'Ag', 'As']",16.0,-84.90425438,0.009106907799072417,0.0,
20572,Ag1Ce1Hg2,mp-865885,CeAgHg2,"['Ce', 'Ag', 'Hg']",4.0,-10.50943163,0.0014410541394043186,0.0,
30209,Ag2Ce2Pb2,mp-13407,CeAgPb,"['Ce', 'Ag', 'Pb']",6.0,-27.07522551,0.0,0.0,
20917,Ag2Ce2Sb4,mp-510280,CeAgSb2,"['Ce', 'Ag', 'Sb']",8.0,-39.35538663,0.0,0.0,
26446,Ag2Ce2Sn2,mp-31420,CeAgSn,"['Ce', 'Ag', 'Sn']",6.0,-28.34660369,0.061071028575033104,0.0,
23003,Al4Ce2,mp-2088,CeAl2,"['Ce', 'Al']",6.0,-29.63356497,0.0,0.0,
19227,Ag3Al2Ce1,mp-1226637,CeAl2Ag3,"['Ce', 'Al', 'Ag']",6.0,-23.5063517,0.0030321163316520128,0.0,
7172,Al2Ce1Cu3,mp-1226644,CeAl2Cu3,"['Ce', 'Al', 'Cu']",6.0,-27.91046964,0.0,0.0,
14867,Al2Ce1Pd5,mp-1025445,CeAl2Pd5,"['Ce', 'Al', 'Pd']",8.0,-46.32664988,0.003757330826416272,5.329070518200751e-15,
31531,Al6Ce2,mp-567305,CeAl3,"['Ce', 'Al']",8.0,-37.64437107,0.0,0.0,
21675,Ag1Al3Ce1,mp-1226650,CeAl3Ag,"['Ce', 'Al', 'Ag']",5.0,-21.76532742,8.881784197001252e-16,0.0,
11680,Al3Au1Ce1,mp-1070063,CeAl3Au,"['Ce', 'Al', 'Au']",5.0,-23.34616228,0.018150116300131636,0.0,
6411,Al3Ce1Cu1,mp-1069443,CeAl3Cu,"['Ce', 'Al', 'Cu']",5.0,-23.36728005,0.0,0.0,
24981,Al3Ce1Ni2,mp-20338,CeAl3Ni2,"['Ce', 'Al', 'Ni']",6.0,-32.38316003,0.0,8.881784197001252e-16,
24350,Al3Ce1Pd2,mp-4785,CeAl3Pd2,"['Ce', 'Al', 'Pd']",6.0,-32.4537444,8.881784197001252e-16,8.881784197001252e-16,
31468,Al8Ce2Co2,mp-13504,CeAl4Co,"['Ce', 'Al', 'Co']",12.0,-61.97690594,0.005200332019858145,0.0,
21856,Al8Ce2Ni2,mp-30750,CeAl4Ni,"['Ce', 'Al', 'Ni']",12.0,-59.81941695,0.0007345717936200202,0.0,
2624,Al8Ce2Pd2,mp-1213792,CeAl4Pd,"['Ce', 'Al', 'Pd']",12.0,-59.38349786,0.00020129952108760563,-1.7763568394002505e-15,
14639,Al4Ce1Ir1Si2,mp-1078427,CeAl4Si2Ir,"['Ce', 'Al', 'Si', 'Ir']",8.0,-45.70531218,0.0,0.0,
3902,Al4Ce1Rh1Si2,mp-1078224,CeAl4Si2Rh,"['Ce', 'Al', 'Si', 'Rh']",8.0,-44.06621575,0.0,0.0,
14556,Al5Ce1Ni2,mp-4817,CeAl5Ni2,"['Ce', 'Al', 'Ni']",8.0,-40.89164124,0.0,0.0,
7035,Al20Ce4Pt12,mp-672344,CeAl5Pt3,"['Ce', 'Al', 'Pt']",36.0,-207.92068664,0.05451693837767113,0.0,
21607,Al6Ce1Pd1,mp-1213784,CeAl6Pd,"['Ce', 'Al', 'Pd']",8.0,-37.30417132,0.005963052856542639,0.0,
10496,Al4Au4Ce4,mp-1102423,CeAlAu,"['Ce', 'Al', 'Au']",12.0,-59.74899957,0.0,0.0,
29457,Al2Ce2Co2,mp-571542,CeAlCo,"['Ce', 'Al', 'Co']",6.0,-36.70546704,0.0,0.0,
16679,Al3Ce3Cu3,mp-1079868,CeAlCu,"['Ce', 'Al', 'Cu']",9.0,-44.24510682,0.013908160645344836,0.0,
18706,Al1Ce1Cu4,mp-1226887,CeAlCu4,"['Ce', 'Al', 'Cu']",6.0,-27.56690636,0.008889139659829404,0.0,
13877,Al2Ce2Ge2,mp-1206928,CeAlGe,"['Ce', 'Al', 'Ge']",6.0,-32.17752866,0.0,0.0,
5074,Al4Ce4Ir4,mp-1102352,CeAlIr,"['Ce', 'Al', 'Ir']",12.0,-84.80630001,0.0,0.0,
2134,Al3Ce3Ni3,mp-11351,CeAlNi,"['Ce', 'Al', 'Ni']",9.0,-51.50309182,0.0,0.0,
4831,Al1Ce1Ni4,mp-1226626,CeAlNi4,"['Ce', 'Al', 'Ni']",6.0,-35.80112663,0.0,0.0,
8796,Al2Ce2O6,mp-19843,CeAlO3,"['Ce', 'Al', 'O']",10.0,-81.13420271,0.0121894824179698,0.0,
23312,Al3Ce3Pd3,mp-21158,CeAlPd,"['Ce', 'Al', 'Pd']",9.0,-51.61876613,0.0,0.0,
8767,Al4Ce4Pd8,mp-1106138,CeAlPd2,"['Ce', 'Al', 'Pd']",16.0,-93.41808319,0.005113601741943086,0.0,
29026,Al4Ce4Pt4,mp-19827,CeAlPt,"['Ce', 'Al', 'Pt']",12.0,-75.21527153,0.029206125483941747,0.0,
25857,Al8Ce8Rh8,mp-3344,CeAlRh,"['Ce', 'Al', 'Rh']",24.0,-156.70140986,0.0,0.0,
10273,Al8Ce8Ru8,mp-604008,CeAlRu,"['Ce', 'Al', 'Ru']",24.0,-166.12323455,0.0,0.0,
11813,Al2Ce2Si2,mp-1206597,CeAlSi,"['Ce', 'Al', 'Si']",6.0,-33.72378943,0.0,0.0,
12762,As1Ce1,mp-2748,CeAs,"['Ce', 'As']",2.0,-13.45066106,0.0,0.0,
24114,As8Ce4,mp-1101892,CeAs2,"['Ce', 'As']",12.0,-72.89853877,0.0,0.0,
5448,As4Au2Ce2,mp-1226657,CeAs2Au,"['Ce', 'As', 'Au']",8.0,-43.36445292,0.011295725698242443,0.0,
8043,As6Ce3Pd9,mp-574159,CeAs2Pd3,"['Ce', 'As', 'Pd']",18.0,-106.87407771,0.006279765258789816,0.0,
11961,As4Ce4F4O16,mp-1193745,CeAsO4F,"['Ce', 'As', 'O', 'F']",28.0,-196.02824354,0.0,0.0,
3298,As2Ce2Pd2,mp-8948,CeAsPd,"['Ce', 'As', 'Pd']",6.0,-38.31539618,0.023519467137044003,0.0,
15657,As4Ce4Rh4,mp-10478,CeAsRh,"['Ce', 'As', 'Rh']",12.0,-85.54924734,0.0,0.0,
26039,As2Ce2O2Ru2,mp-1080105,CeAsRuO,"['Ce', 'As', 'Ru', 'O']",8.0,-64.69297813,0.0,0.0,
27646,As4Ce4S4,mp-1095675,CeAsS,"['Ce', 'As', 'S']",12.0,-77.96793564,0.0,0.0,
21354,As8Ce8Se8,mp-607004,CeAsSe,"['Ce', 'As', 'Se']",24.0,-147.42247518,0.0015581325553384318,0.0,
29172,Au2Ce2,mp-1018087,CeAu,"['Ce', 'Au']",4.0,-20.98366579,0.00028363718627932855,0.0,
4249,Au4Ce2,mp-1077442,CeAu2,"['Ce', 'Au']",6.0,-29.02855891,0.011102964462891052,0.0,
19163,Au6Ce2,mp-865572,CeAu3,"['Ce', 'Au']",8.0,-36.18171835,0.006446659497070684,0.0,
9465,Au12Ce2,mp-1103758,CeAu6,"['Ce', 'Au']",14.0,-56.45735537,0.007529949157365934,0.0,
6388,B6C3Ce3,mp-8667,CeB2C,"['Ce', 'B', 'C']",12.0,-91.88942664,0.0,0.0,
5165,B2C1Ce1Ir2,mp-10964,CeB2Ir2C,"['Ce', 'B', 'Ir', 'C']",6.0,-49.8956672,0.0,0.0,
4810,B2Ce1Ir2Rh1,mp-1226636,CeB2Ir2Rh,"['Ce', 'B', 'Ir', 'Rh']",6.0,-48.42702357,0.015481855624988938,0.0,
31719,B2Ce1Ir3,mp-11593,CeB2Ir3,"['Ce', 'B', 'Ir']",6.0,-49.8428008,0.008631531361487532,3.552713678800501e-15,
13131,B2C1Ce1Rh2,mp-6191,CeB2Rh2C,"['Ce', 'B', 'Rh', 'C']",6.0,-46.94062407,1.4210854715202004e-14,-1.4210854715202004e-14,
14899,B8Ce4Ru4,mp-1188136,CeB2Ru,"['Ce', 'B', 'Ru']",16.0,-123.62603849,0.0,0.0,
6759,B2Ce1Ru3,mp-5940,CeB2Ru3,"['Ce', 'B', 'Ru']",6.0,-50.17291596,0.00016220002604150352,0.0,
50,B16Ce4,mp-1974,CeB4,"['Ce', 'B']",20.0,-143.15755182,0.0,0.0,
7793,B6Ce1,mp-21343,CeB6,"['Ce', 'B']",7.0,-49.61860621,0.0,0.0,
5467,B2Ce2O6,mp-20178,CeBO3,"['Ce', 'B', 'O']",10.0,-84.86371303,0.028155100336750394,7.105427357601002e-15,
31549,B1Ce1Pt3,mp-22435,CeBPt3,"['Ce', 'B', 'Pt']",5.0,-35.20589156,0.0,0.0,
13069,B2Ce2Pt8,mp-20051,CeBPt4,"['Ce', 'B', 'Pt']",12.0,-82.92728409,0.0017973707552076945,0.0,
28136,B1Ce1Rh3,mp-510376,CeBRh3,"['Ce', 'B', 'Rh']",5.0,-38.51021805,0.0,7.105427357601002e-15,
10999,Be26Ce2,mp-457,CeBe13,"['Ce', 'Be']",28.0,-113.32879231,0.0,0.0,
27907,Bi1Ce1,mp-23285,CeBi,"['Ce', 'Bi']",2.0,-11.44913797,0.0,0.0,
26083,Au2Bi4Ce2,mp-1078370,CeBi2Au,"['Ce', 'Bi', 'Au']",8.0,-38.4728584,0.0,0.0,
23553,Bi3Ce1,mp-1183850,CeBi3,"['Ce', 'Bi']",4.0,-19.36050488,0.018544968354492042,0.0,
8171,Au2Bi1Ce1,mp-861888,CeBiAu2,"['Ce', 'Bi', 'Au']",4.0,-18.69536764,0.0,0.0,
21530,Bi1Ce1Pd1,mp-604453,CeBiPd,"['Ce', 'Bi', 'Pd']",3.0,-17.55202691,0.0,0.0,
3219,Bi1Ce1Pt1,mp-1018162,CeBiPt,"['Ce', 'Bi', 'Pt']",3.0,-18.69581297,0.0,0.0,
15298,Bi4Ce4Rh4,mp-1213954,CeBiRh,"['Ce', 'Bi', 'Rh']",12.0,-77.46837371,0.03941619941894636,0.0,
31006,Br6Ce2,mp-569850,CeBr3,"['Ce', 'Br']",8.0,-36.58574003,0.031051344669172032,0.0,
15101,Br2Ce2O2,mp-754112,CeBrO,"['Ce', 'Br', 'O']",6.0,-41.96961197,0.0,0.0,
13590,C6Ce6F6O18,mp-20288,CeCO3F,"['Ce', 'C', 'O', 'F']",36.0,-285.81649327,0.011467119453126173,0.0,
18434,Cd33Ce3,mp-640089,CeCd11,"['Ce', 'Cd']",36.0,-52.47318831,0.0,0.0,
11625,Cd2Ce1,mp-866189,CeCd2,"['Ce', 'Cd']",3.0,-8.54471381,0.010197376240234313,0.0,
1594,Cd3Ce1,mp-2863,CeCd3,"['Ce', 'Cd']",4.0,-9.58942052,0.0,0.0,
6137,Ag2Cd1Ce1,mp-865552,CeCdAg2,"['Ce', 'Cd', 'Ag']",4.0,-13.21052129,0.029209395585123143,0.0,
8754,Au3Cd3Ce3,mp-11082,CeCdAu,"['Ce', 'Cd', 'Au']",9.0,-35.29889519,0.0,0.0,
14941,Au2Cd1Ce1,mp-866185,CeCdAu2,"['Ce', 'Cd', 'Au']",4.0,-15.72486236,0.002322131633911262,0.0,
23449,Cd1Ce1Hg2,mp-866274,CeCdHg2,"['Ce', 'Cd', 'Hg']",4.0,-8.84628773,0.0029737942761229874,0.0,
26698,Cd1Ce1Ni4,mp-12006,CeCdNi4,"['Ce', 'Cd', 'Ni']",6.0,-32.05875896,-4.440892098500626e-15,0.0,
10285,Cd3Ce3Pd3,mp-1079977,CeCdPd,"['Ce', 'Cd', 'Pd']",9.0,-41.34861477,0.0,0.0,
24059,Ce2Cl6,mp-582011,CeCl3,"['Ce', 'Cl']",8.0,-40.9276865,0.08677151400754823,0.0,
8512,Ce2Cl2O2,mp-22952,CeClO,"['Ce', 'Cl', 'O']",6.0,-43.29565755,0.0,0.0,
20112,Ce2Co4,mp-1112,CeCo2,"['Ce', 'Co']",6.0,-41.81273492,0.0,0.0,
14236,B2Ce1Co3,mp-4454,CeCo3B2,"['Ce', 'Co', 'B']",6.0,-43.56105277,0.3870672790338956,0.0,
27243,Ce4Co20P12,mp-1203867,CeCo5P3,"['Ce', 'Co', 'P']",36.0,-260.22734027,0.008237638713106676,0.0,
1546,Ce2Co18Si8,mp-1193469,CeCo9Si4,"['Ce', 'Co', 'Si']",28.0,-196.84374803,0.026597086870821407,0.0,
16777,C4Ce2Co2,mp-20753,CeCoC2,"['Ce', 'Co', 'C']",8.0,-65.41137591,0.0,0.0,
1374,Ce2Co2Ge2,mp-21339,CeCoGe,"['Ce', 'Co', 'Ge']",6.0,-38.86482248,-5.329070518200751e-15,0.0,
15909,Ce2Co2Ge4,mp-1079178,CeCoGe2,"['Ce', 'Co', 'Ge']",8.0,-49.861148,0.0,0.0,
3115,Ce1Co1Ge3,mp-21116,CeCoGe3,"['Ce', 'Co', 'Ge']",5.0,-29.79328834,-5.329070518200751e-15,-5.329070518200751e-15,
16210,Ce2Co2Ge2H2,mp-644499,CeCoGeH,"['Ce', 'Co', 'Ge', 'H']",8.0,-47.06550988,0.0,0.0,
7426,Ce2Co2Sb4,mp-1079392,CeCoSb2,"['Ce', 'Co', 'Sb']",8.0,-47.74160315,0.0,0.0,
19187,Ce8Co8Sb24,mp-568089,CeCoSb3,"['Ce', 'Co', 'Sb']",40.0,-225.76500824,0.0,0.0,
16978,Ce2Co2Si2,mp-1018660,CeCoSi,"['Ce', 'Co', 'Si']",6.0,-40.94809546,0.0074538623388678005,0.0,
19702,Ce2Co2Si4,mp-7095,CeCoSi2,"['Ce', 'Co', 'Si']",8.0,-54.10168912,0.0,0.0,
13806,Ce1Co1Si3,mp-1070753,CeCoSi3,"['Ce', 'Co', 'Si']",5.0,-32.84857079,0.00031427827929775276,0.0,
25805,C1Ce1Cr2Si2,mp-6258,CeCr2Si2C,"['Ce', 'Cr', 'Si', 'C']",6.0,-48.26709347,0.0,0.0,
22867,Ce4Cr4S12,mp-21871,CeCrS3,"['Ce', 'Cr', 'S']",20.0,-139.4054896,0.05790827756835881,0.0,
8158,Ce4Cr4Se12,mp-20170,CeCrSe3,"['Ce', 'Cr', 'Se']",20.0,-128.07137114,0.010321591925782414,0.0,
23789,Ce2Cu4,mp-2801,CeCu2,"['Ce', 'Cu']",6.0,-29.31254112,0.0,0.0,
141,Ce1Cu2Ge1Si1,mp-1226656,CeCu2SiGe,"['Ce', 'Cu', 'Si', 'Ge']",5.0,-26.85973212,0.0,0.0,
1863,Ag4Ce4Cu20,mp-1194241,CeCu5Ag,"['Ce', 'Cu', 'Ag']",28.0,-120.51996682,0.011066071365616104,0.0,
12684,Au4Ce4Cu20,mp-12562,CeCu5Au,"['Ce', 'Cu', 'Au']",28.0,-125.01502278,0.01142384234287075,0.0,
27415,Ce4Cu20Sn4,mp-637204,CeCu5Sn,"['Ce', 'Cu', 'Sn']",28.0,-128.0016046,0.000651136635044125,0.0,
23704,Ce4Cu24,mp-581942,CeCu6,"['Ce', 'Cu']",28.0,-125.23915767,0.0,0.0,
16465,Ce2Cu2Ge2H2,mp-1226908,CeCuGeH,"['Ce', 'Cu', 'Ge', 'H']",8.0,-40.60992683,0.0,0.0,
13689,Ce2Cu2Pb2,mp-1096897,CeCuPb,"['Ce', 'Cu', 'Pb']",6.0,-29.27173818,0.02197422443522168,0.0,
23859,Ce4Cu4S8,mp-5766,CeCuS2,"['Ce', 'Cu', 'S']",16.0,-94.81443816,0.024639002557987233,0.0,
6541,Ce2Cu2Sb4,mp-672238,CeCuSb2,"['Ce', 'Cu', 'Sb']",8.0,-41.813969,0.0,0.0,
915,Ce4Cu4Se8,mp-11791,CeCuSe2,"['Ce', 'Cu', 'Se']",16.0,-87.44545562,0.027860896893518117,0.0,
9052,Ce2Cu2Si2,mp-22740,CeCuSi,"['Ce', 'Cu', 'Si']",6.0,-34.28781527,0.0,-2.6645352591003757e-15,
16097,Ce1Cu1Ni1Si2,mp-1226605,CeCuSi2Ni,"['Ce', 'Cu', 'Si', 'Ni']",5.0,-30.12418894,0.001089056837891178,0.0,
15801,Ce1Cu1Pd1Si2,mp-1226625,CeCuSi2Pd,"['Ce', 'Cu', 'Si', 'Pd']",5.0,-29.81517401,0.0,0.0,
4280,Ce2Cu2Sn2,mp-22683,CeCuSn,"['Ce', 'Cu', 'Sn']",6.0,-30.95188378,0.008388441960449633,-2.6645352591003757e-15,
3008,Ce4Dy4S12,mp-20775,CeDyS3,"['Ce', 'Dy', 'S']",20.0,-132.84253242,0.015356826265624512,0.0,
14719,Ce1Er1In2,mp-1183776,CeErIn2,"['Ce', 'Er', 'In']",4.0,-17.59545702,0.0012715005389400957,0.0,
21941,Al4Ce1Eu1,mp-1226635,CeEuAl4,"['Ce', 'Eu', 'Al']",6.0,-33.74838724,0.01267331638671898,0.0,
27388,Ce6F18,mp-510560,CeF3,"['Ce', 'F']",24.0,-165.08743598,0.027570355488280462,0.0,
1226,Ce6F24,mp-542001,CeF4,"['Ce', 'F']",30.0,-192.1958521,0.0,0.0,
7166,Ce2Fe4,mp-204,CeFe2,"['Ce', 'Fe']",6.0,-46.23605183,0.04960598296532037,0.0,
22637,Ce1Fe1Ge3,mp-20722,CeFeGe3,"['Ce', 'Fe', 'Ge']",5.0,-30.79832962,0.0,0.0,
1351,Ce2Fe2Si2,mp-20245,CeFeSi,"['Ce', 'Fe', 'Si']",6.0,-43.31323818,0.0017502711881514088,0.0,
3262,Ce2Fe2Si4,mp-1025450,CeFeSi2,"['Ce', 'Fe', 'Si']",8.0,-56.01627976,0.01084816674926703,0.0,
14341,Ce2Ga2,mp-1018276,CeGa,"['Ce', 'Ga']",4.0,-19.81426293,0.012295179278040358,0.0,
25028,Ce1Ga2,mp-2209,CeGa2,"['Ce', 'Ga']",3.0,-13.76124202,0.0,0.0,
18494,Ce3Co9Ga6,mp-1227509,CeGa2Co3,"['Ce', 'Ga', 'Co']",18.0,-106.94102133,0.0,0.0,
26330,Ce1Cu3Ga2,mp-1226676,CeGa2Cu3,"['Ce', 'Ga', 'Cu']",6.0,-26.33620657,0.0016333039054359233,0.0,
25044,Ce2Ga4Ni2,mp-1025446,CeGa2Ni,"['Ce', 'Ga', 'Ni']",8.0,-40.15544871,0.050617894865519375,0.0,
24646,Ce3Ga6Ni9,mp-1227952,CeGa2Ni3,"['Ce', 'Ga', 'Ni']",18.0,-97.22267541,0.02694846912414217,0.0,
23098,Ce2Ga6,mp-862696,CeGa3,"['Ce', 'Ga']",8.0,-34.46776219,0.0,0.0,
20210,Au1Ce1Ga3,mp-1226631,CeGa3Au,"['Ce', 'Ga', 'Au']",5.0,-21.08254126,0.03014282527050849,0.0,
12700,Ce2Ga6Pd2,mp-1078348,CeGa3Pd,"['Ce', 'Ga', 'Pd']",10.0,-47.24782547,0.0,0.0,
13422,Ce1Ga3Pd2,mp-3494,CeGa3Pd2,"['Ce', 'Ga', 'Pd']",6.0,-29.73863615,0.0015758798299136956,-8.881784197001252e-15,
25553,Ce6Ga24Os6,mp-30267,CeGa4Os,"['Ce', 'Ga', 'Os']",36.0,-192.32969114,0.0,0.0,
31289,Ce2Ga12,mp-711,CeGa6,"['Ce', 'Ga']",14.0,-52.71564506,8.390737025676387e-05,0.0,
15682,Ce1Ga6Ni1,mp-1190078,CeGa6Ni,"['Ce', 'Ga', 'Ni']",8.0,-33.32952148,0.042849811067684485,-7.105427357601002e-15,
25391,Ce1Ga6Pd1,mp-580215,CeGa6Pd,"['Ce', 'Ga', 'Pd']",8.0,-33.13220793,0.0027468130102539234,-1.7763568394002505e-15,
19396,Ce3Ga24Pd9,mp-1203026,CeGa8Pd3,"['Ce', 'Ga', 'Pd']",36.0,-157.06841205,-7.993605777301127e-15,-7.993605777301127e-15,
31541,Ag2Ce2Ga2,mp-1077578,CeGaAg,"['Ce', 'Ga', 'Ag']",6.0,-26.06208307,0.005095034089359629,0.0,
28023,Ce2Co2Ga2,mp-1071448,CeGaCo,"['Ce', 'Ga', 'Co']",6.0,-35.50362449,0.0016961807845055077,0.0,
8777,Ce1Cu4Ga1,mp-1226702,CeGaCu4,"['Ce', 'Ga', 'Cu']",6.0,-26.7597723,0.0,0.0,
21148,Ce4Ga4Ir4,mp-1213791,CeGaIr,"['Ce', 'Ga', 'Ir']",12.0,-81.41542183,0.000594984625650774,0.0,
31476,Ce3Ga3Ni3,mp-31492,CeGaNi,"['Ce', 'Ga', 'Ni']",9.0,-49.74882302,0.0,0.0,
13329,Ce1Ga1Ni4,mp-1226588,CeGaNi4,"['Ce', 'Ga', 'Ni']",6.0,-34.92191774,0.00136616768229203,0.0,
5420,Ce4Ga4Pd4,mp-1102053,CeGaPd,"['Ce', 'Ga', 'Pd']",12.0,-66.1349393,0.0094658974989148,0.0,
19400,Ce4Ga4Pd8,mp-639863,CeGaPd2,"['Ce', 'Ga', 'Pd']",16.0,-90.20104204,0.0038688339646117953,0.0,
12143,Ce4Ga4Pt4,mp-1103487,CeGaPt,"['Ce', 'Ga', 'Pt']",12.0,-72.26114446,0.017205518090277927,0.0,
4177,Ce4Ga4Rh4,mp-1102417,CeGaRh,"['Ce', 'Ga', 'Rh']",12.0,-75.02951528,0.03744403408040409,-5.329070518200751e-15,
21771,Ce4Ge8Pt4,mp-1189580,CeGe2Pt,"['Ce', 'Ge', 'Pt']",16.0,-98.84720371,0.0,0.0,
17549,Ce1Ge3Ir1,mp-13122,CeGe3Ir,"['Ce', 'Ge', 'Ir']",5.0,-31.91866718,0.0,0.0,
30302,Ce1Ge3Rh1,mp-13121,CeGe3Rh,"['Ce', 'Ge', 'Rh']",5.0,-30.61085798,0.0,0.0,
25739,Ce8Ge24Ru8,mp-1198354,CeGe3Ru,"['Ce', 'Ge', 'Ru']",40.0,-256.72158016,0.29091758392180367,0.0,
20565,Au2Ce2Ge2,mp-4219,CeGeAu,"['Ce', 'Ge', 'Au']",6.0,-32.13906319,0.0,0.0,
7823,Ce4Ge4Ir4,mp-20022,CeGeIr,"['Ce', 'Ge', 'Ir']",12.0,-88.22032239,0.0,0.0,
27381,Ce8Ge8Pt8,mp-627355,CeGePt,"['Ce', 'Ge', 'Pt']",24.0,-159.81698399,0.0,0.0,
3474,Ce4Ge4Rh4,mp-505282,CeGeRh,"['Ce', 'Ge', 'Rh']",12.0,-82.56772677,-6.217248937900877e-15,0.0,
25304,Ce1H2,mp-505569,CeH2,"['Ce', 'H']",3.0,-14.23545737,0.0,0.0,
26259,Ce1H3,mp-1008376,CeH3,"['Ce', 'H']",4.0,-17.99283355,0.0,0.0,
27521,Ce2H2Se2,mp-24011,CeHSe,"['Ce', 'H', 'Se']",6.0,-33.81726195,5.329070518200751e-15,5.329070518200751e-15,
31352,Ce2F22Hf4,mp-1213799,CeHf2F11,"['Ce', 'Hf', 'F']",28.0,-201.96260274,0.0001367638894826939,-2.6645352591003757e-14,
4238,Ce2F14Hf2,mp-1213837,CeHfF7,"['Ce', 'Hf', 'F']",18.0,-128.86994178,0.0016044171701325993,-7.105427357601002e-15,
30861,Ce1Hg1,mp-702,CeHg,"['Ce', 'Hg']",2.0,-6.80735412,0.01085440934509263,0.0,
31611,Ce1Hg2,mp-30506,CeHg2,"['Ce', 'Hg']",3.0,-7.65120571,0.0,0.0,
4233,Ce2Hg6,mp-862668,CeHg3,"['Ce', 'Hg']",8.0,-16.20762571,0.00028403562438983343,0.0,
1109,Au2Ce1Hg1,mp-1184341,CeHgAu2,"['Ce', 'Hg', 'Au']",4.0,-14.83093659,0.034235437918701095,0.0,
9477,Ce3Hg3Pd3,mp-1079310,CeHgPd,"['Ce', 'Hg', 'Pd']",9.0,-39.76849897,0.0,0.0,
17104,Ce1Ho1In2,mp-1183753,CeHoIn2,"['Ce', 'Ho', 'In']",4.0,-17.61945342,0.003055336635132022,0.0,
30057,Ce2I6,mp-1025426,CeI3,"['Ce', 'I']",8.0,-32.19961025,0.05547424060058592,0.0,
2470,Ce4In8Pd12,mp-1191263,CeIn2Pd3,"['Ce', 'In', 'Pd']",24.0,-124.08571725,0.005445438578288275,0.0,
21961,Ce1In3,mp-20369,CeIn3,"['Ce', 'In']",4.0,-15.80240686,0.0,0.0,
9575,Ce1Co1In5,mp-19961,CeIn5Co,"['Ce', 'In', 'Co']",7.0,-28.52815469,0.00017515833426262617,0.0,
5344,Ce1In5Ir1,mp-20975,CeIn5Ir,"['Ce', 'In', 'Ir']",7.0,-31.20695684,0.0,0.0,
26354,Ce1In5Rh1,mp-20294,CeIn5Rh,"['Ce', 'In', 'Rh']",7.0,-30.04466451,0.021568280187639566,0.0,
9271,Ce1In7Pt2,mp-1078439,CeIn7Pt2,"['Ce', 'In', 'Pt']",10.0,-41.89401696,0.004921462264163345,0.0,
11377,Ag2Ce1In1,mp-672191,CeInAg2,"['Ce', 'In', 'Ag']",4.0,-15.45051974,0.22135215118164187,0.0,
30817,Au3Ce3In3,mp-19718,CeInAu,"['Ce', 'In', 'Au']",9.0,-41.40208158,0.006685776728516224,0.0,
20263,Au2Ce1In1,mp-636232,CeInAu2,"['Ce', 'In', 'Au']",4.0,-17.77725832,0.002120871507568012,0.0,
17299,Ce3Cu3In3,mp-20665,CeInCu,"['Ce', 'In', 'Cu']",9.0,-41.53922435,4.440892098500626e-15,4.440892098500626e-15,
6047,Ce4Cu20In4,mp-1214036,CeInCu5,"['Ce', 'In', 'Cu']",28.0,-122.14766944,0.0,0.0,
30760,Ce3In3Ir3,mp-20449,CeInIr,"['Ce', 'In', 'Ir']",9.0,-58.7343541,0.0,0.0,
2713,Ce3In3Ni3,mp-21492,CeInNi,"['Ce', 'In', 'Ni']",9.0,-47.43541875,0.0,0.0,
25633,Ce1In1Ni4,mp-1206393,CeInNi4,"['Ce', 'In', 'Ni']",6.0,-34.01927803,0.00012612667317668524,0.0,
2210,Ce3In3Pd3,mp-21387,CeInPd,"['Ce', 'In', 'Pd']",9.0,-48.08382181,0.0,0.0,
22578,Ce3In3Pt3,mp-640922,CeInPt,"['Ce', 'In', 'Pt']",9.0,-52.55063609,8.818428168488879e-05,0.0,
15100,Ce1In1Pt4,mp-1071478,CeInPt4,"['Ce', 'In', 'Pt']",6.0,-37.82373008,0.010265415133464018,-5.329070518200751e-15,
1254,Ce3In3Rh3,mp-1079553,CeInRh,"['Ce', 'In', 'Rh']",9.0,-54.46559147,0.0018596605463319094,0.0,
17717,Ce2Ir4,mp-582,CeIr2,"['Ce', 'Ir']",6.0,-51.99598444,0.0,-3.552713678800501e-15,
15996,Ce6Ir18,mp-1191930,CeIr3,"['Ce', 'Ir']",24.0,-209.91387587,0.0,0.0,
18432,Ce4H28Mg8,mp-697677,CeMg2H7,"['Ce', 'Mg', 'H']",40.0,-143.35354641,0.0,0.0,
28430,Au3Ce3Mg3,mp-759835,CeMgAu,"['Ce', 'Mg', 'Au']",9.0,-37.39097944,0.0,0.0,
19538,Au2Ce1Mg1,mp-1183717,CeMgAu2,"['Ce', 'Mg', 'Au']",4.0,-16.70718826,0.0,0.0,
20820,Ce3Ga3Mg3,mp-21375,CeMgGa,"['Ce', 'Mg', 'Ga']",9.0,-34.97157309,0.0,0.0,
23015,Ce2In6Mg2Rh2,mp-1213919,CeMgIn3Rh,"['Ce', 'Mg', 'In', 'Rh']",12.0,-51.94156246,7.993605777301127e-15,0.0,
10862,Ce3Mg3Rh3,mp-1213760,CeMgRh,"['Ce', 'Mg', 'Rh']",9.0,-49.67375245,0.0,0.0,
9130,Ce4Mg4Sn4,mp-1095568,CeMgSn,"['Ce', 'Mg', 'Sn']",12.0,-51.71943582,0.0,0.0,
18823,Ce1Mg1Zn2,mp-13254,CeMgZn2,"['Ce', 'Mg', 'Zn']",4.0,-11.1791076,0.0,0.0,
11428,Ce2Ge8Mn4O24,mp-21635,CeMn2(GeO3)4,"['Ce', 'Mn', 'Ge', 'O']",38.0,-272.53574647,0.0,0.0,
7062,B16Ce4Mn4,mp-1213778,CeMnB4,"['Ce', 'Mn', 'B']",24.0,-181.37297483,0.00832624471028165,0.0,
552,Ce2Mn2Si2,mp-505331,CeMnSi,"['Ce', 'Mn', 'Si']",6.0,-44.09383042,0.004291767361659815,0.0,
25276,Ce2Mn2Si4,mp-5901,CeMnSi2,"['Ce', 'Mn', 'Si']",8.0,-56.88295274,0.0,0.0,
12939,Ce1N1,mp-2493,CeN,"['Ce', 'N']",2.0,-17.26655555,0.0,0.0,
7814,Ce3N6,mp-1226927,CeN2,"['Ce', 'N']",9.0,-76.35697057,0.1067042469015842,0.0,
8789,Ce2Nb2O8,mp-557564,CeNbO4,"['Ce', 'Nb', 'O']",12.0,-107.82178395,0.012153258072917339,0.0,
4773,Ce1N2Nd1,mp-1226534,CeNdN2,"['Ce', 'Nd', 'N']",4.0,-33.17770157,0.0,0.0,
7245,Ce1Nd1S2,mp-1226502,CeNdS2,"['Ce', 'Nd', 'S']",4.0,-27.12993994,0.0035332052332881503,0.0,
15455,Ce2Ni2,mp-21188,CeNi,"['Ce', 'Ni']",4.0,-24.68391437,0.0835423005969238,0.0,
193,Ce2Ni4,mp-1654,CeNi2,"['Ce', 'Ni']",6.0,-37.2508372,0.015703487976752584,0.0,
28665,B2C1Ce1Ni2,mp-10860,CeNi2B2C,"['Ce', 'Ni', 'B', 'C']",6.0,-42.97030742,0.03314573395507825,0.0,