,Composition,MaterialId,Reduced Formula,Elements,NSites,Corrected Energy,Decomposition Energy Per Atom All,Decomposition Energy Per Atom MP,Directory
30224,Au1Be2Rh1,mp-866024,Be2RhAu,"['Be', 'Rh', 'Au']",4.0,-19.77486721,0.04188128481079101,0.0,
19787,Be8Ru4,mp-1103315,Be2Ru,"['Be', 'Ru']",12.0,-70.99796364,0.004958651719360496,-8.881784197001252e-16,
6095,Au1Be2Ru1,mp-867307,Be2RuAu,"['Be', 'Ru', 'Au']",4.0,-21.05773862,0.004592101286621464,0.0,
12162,Be2Pt1Ru1,mp-865021,Be2RuPt,"['Be', 'Ru', 'Pt']",4.0,-24.89748083,0.011829222556981378,0.0,
31236,Be12O24Si6,mp-3347,Be2SiO4,"['Be', 'Si', 'O']",42.0,-313.10610767,0.0,0.0,
23920,Be4Cl12Te14,mp-30096,Be2Te7Cl6,"['Be', 'Te', 'Cl']",30.0,-101.41464955,5.202183593810972e-05,0.0,
20736,Be4F10Tl2,mp-27187,Be2TlF5,"['Be', 'Tl', 'F']",16.0,-85.38308021,0.0,0.0,
28646,Be8V4,mp-11281,Be2V,"['Be', 'V']",12.0,-68.86908869,1.149002278211242e-06,-8.881784197001252e-16,
27829,Be8W4,mp-11282,Be2W,"['Be', 'W']",12.0,-85.39092774,0.0,-8.881784197001252e-16,
5898,Al4Be6O36Si12,mp-6030,Be3Al2(SiO3)6,"['Be', 'Al', 'Si', 'O']",58.0,-445.43763219,7.852479608772001e-07,1.1546319456101628e-13,
6405,As4Be6H8O20,mp-24570,Be3As2(H2O5)2,"['Be', 'As', 'H', 'O']",38.0,-229.83657803,0.0014621864021373554,0.0,
10768,Be6Cd8O24S2Si6,mp-17493,Be3Cd4Si3SO12,"['Be', 'Cd', 'Si', 'S', 'O']",46.0,-290.97434332,2.163366161767044e-07,-6.217248937900877e-15,
30467,Be6Co2,mp-1183425,Be3Co,"['Be', 'Co']",8.0,-38.70980375,0.01637563980102552,0.0,
4419,Be3Fe1,mp-983590,Be3Fe,"['Be', 'Fe']",4.0,-20.52420885,0.008804262240165173,0.0,
16283,Be3Ir1,mp-862714,Be3Ir,"['Be', 'Ir']",4.0,-21.90243829,0.047273365885009966,0.0,
21265,Be24N16,mp-18337,Be3N2,"['Be', 'N']",40.0,-266.07646462,4.149880858506094e-06,0.0,
15648,Be9Nb3,mp-11273,Be3Nb,"['Be', 'Nb']",12.0,-66.78813552,7.406941894583241e-05,0.0,
18219,Be3Ni1,mp-865168,Be3Ni,"['Be', 'Ni']",4.0,-18.13311808,0.01789619353912375,0.0,
24706,Be24P16,mp-567841,Be3P2,"['Be', 'P']",40.0,-185.64795131,0.0,0.0,
11409,Be6H8O20P4,mp-24674,Be3P2(H2O5)2,"['Be', 'P', 'H', 'O']",38.0,-248.53782459,2.1076270559028387e-05,0.0,
24513,Be6Rh2,mp-864894,Be3Rh,"['Be', 'Rh']",8.0,-40.70219825,0.027691850125826534,0.0,
3965,Be3Ru1,mp-865562,Be3Ru,"['Be', 'Ru']",4.0,-21.83036179,0.01054777042602506,0.0,
16126,Be3Tc1,mp-977552,Be3Tc,"['Be', 'Tc']",4.0,-22.64516979,0.04477311188720634,0.0,
8287,Be12F48Ni8Tl8,mp-1214337,Be3Tl2Ni2F12,"['Be', 'Tl', 'Ni', 'F']",76.0,-376.76437114,0.00019636233861053398,0.0,
27640,Be6O24S2Si6Zn8,mp-6856,Be3Zn4Si3SO12,"['Be', 'Zn', 'Si', 'S', 'O']",46.0,-298.2938179,0.0,0.0,
11757,Al2Be8Cr2,mp-1227359,Be4AlCr,"['Be', 'Al', 'Cr']",12.0,-58.14875247,0.001364686490478384,0.0,
7153,Al1Be4Fe1,mp-1227272,Be4AlFe,"['Be', 'Al', 'Fe']",6.0,-28.59395047,0.0,-8.881784197001252e-16,
27645,Al1Be4Ni1,mp-1227279,Be4AlNi,"['Be', 'Al', 'Ni']",6.0,-26.23080201,0.0,0.0,
24360,B2Be8,mp-27757,Be4B,"['Be', 'B']",10.0,-43.44125785,0.015266118877257817,0.0,
11217,Be12N18O57,mp-30142,Be4N6O19,"['Be', 'N', 'O']",87.0,-557.43701694,1.6036429595800428e-05,-8.881784197001252e-16,
14081,Be8H4O18Si4,mp-707304,Be4Si2H2O9,"['Be', 'Si', 'H', 'O']",34.0,-238.69681216,0.0001981588396171574,3.552713678800501e-15,
14073,Be4O7Te1,mp-27608,Be4TeO7,"['Be', 'Te', 'O']",12.0,-78.7972216,-1.7763568394002505e-15,-1.7763568394002505e-15,
16083,Au1Be5,mp-1220,Be5Au,"['Be', 'Au']",6.0,-22.48305926,0.0,0.0,
5240,Be5Co1,mp-1071690,Be5Co,"['Be', 'Co']",6.0,-26.9565204,0.005492435304260468,0.0,
6775,Be5Pd1,mp-650,Be5Pd,"['Be', 'Pd']",6.0,-25.76899779,0.0020143784448238833,0.0,
1296,Be5Pt1,mp-1072399,Be5Pt,"['Be', 'Pt']",6.0,-27.53777871,0.0002839011165356453,0.0,
20533,Ag12Be12O48P12,mp-15919,BeAgPO4,"['Be', 'Ag', 'P', 'O']",84.0,-548.22643457,2.267057537252981e-07,0.0,
8478,Al8Be4O16,mp-3081,BeAl2O4,"['Be', 'Al', 'O']",28.0,-206.97934529,-3.552713678800501e-15,-3.552713678800501e-15,
3325,Al1B1Be1,mp-4262,BeAlB,"['Be', 'Al', 'B']",3.0,-14.32157798,0.0003331655004839007,0.0,
3286,Al1Be1Ir2,mp-865966,BeAlIr2,"['Be', 'Al', 'Ir']",4.0,-28.26156091,0.023056866463623038,0.0,
16532,Al1Be1Rh2,mp-862287,BeAlRh2,"['Be', 'Al', 'Rh']",4.0,-25.68918143,0.007279132093505503,0.0,
15512,Au4Be4,mp-30365,BeAu,"['Be', 'Au']",8.0,-29.14272077,0.0,0.0,
3791,Au2Be1,mp-12761,BeAu2,"['Be', 'Au']",3.0,-10.69448173,0.0,0.0,
21759,Be2Br4,mp-30139,BeBr2,"['Be', 'Br']",6.0,-20.28648011,0.0,0.0,
26193,Be4C4N8,mp-1189451,BeCN2,"['Be', 'C', 'N']",16.0,-124.73770339,9.44388671886287e-06,0.0,
16964,Be2Cl4,mp-23267,BeCl2,"['Be', 'Cl']",6.0,-23.44177477,0.0,0.0,
7598,Be1Co1,mp-2773,BeCo,"['Be', 'Co']",2.0,-11.45948122,0.0,0.0,
7538,Be1Co2Ge1,mp-862706,BeCo2Ge,"['Be', 'Co', 'Ge']",4.0,-23.81093515,0.0,0.0,
5543,Be1Co2Si1,mp-865901,BeCo2Si,"['Be', 'Co', 'Si']",4.0,-25.77130322,0.0012344163541673225,0.0,
13616,Be4Cr8O16,mp-1193887,BeCr2O4,"['Be', 'Cr', 'O']",28.0,-217.16751702,-3.552713678800501e-15,-3.552713678800501e-15,
13009,Be1Cr1Fe2,mp-1183416,BeCrFe2,"['Be', 'Cr', 'Fe']",4.0,-30.77162251,1.7763568394002505e-15,0.0,
28345,Be1Cr1Ru2,mp-867837,BeCrRu2,"['Be', 'Cr', 'Ru']",4.0,-32.51288638,0.020776665498047464,1.7763568394002505e-15,
3579,Be6F12,mp-561543,BeF2,"['Be', 'F']",18.0,-103.77806293,7.356755533827197e-05,0.0,
19186,Be1Fe2Si1,mp-862669,BeFe2Si,"['Be', 'Fe', 'Si']",4.0,-27.69261188,0.0,0.0,
20602,Be1Fe1Rh2,mp-867840,BeFeRh2,"['Be', 'Fe', 'Rh']",4.0,-28.24286729,0.00974349701904309,0.0,
6107,Be1Ga1Ir2,mp-867116,BeGaIr2,"['Be', 'Ga', 'Ir']",4.0,-26.41874979,0.014306311655273518,0.0,
107,Be1Ga1Rh2,mp-862291,BeGaRh2,"['Be', 'Ga', 'Rh']",4.0,-24.18195388,0.0,0.0,
8798,Be4Cl8H48N16,mp-1203786,BeH12(N2Cl)2,"['Be', 'H', 'N', 'Cl']",76.0,-374.61148623,0.0072918681959244225,0.0,
20457,Be4H56I16O72,mp-723109,BeH14(I2O9)2,"['Be', 'H', 'I', 'O']",148.0,-712.16737914,0.0009318106038849194,0.0,
1020,Be6H12,mp-768203,BeH2,"['Be', 'H']",18.0,-63.99815864,0.0010616280186632743,0.0,
21977,Be4H8O16Se4,mp-757836,BeH2SeO4,"['Be', 'H', 'Se', 'O']",32.0,-179.37247575,0.0015324197998101141,0.0,
17333,Be4F8H24N8,mp-1200927,BeH6(NF)2,"['Be', 'H', 'N', 'F']",44.0,-230.31790208,0.0004764713929326092,0.0,
9482,Be4Cl8H32O16,mp-23776,BeH8(ClO2)2,"['Be', 'H', 'Cl', 'O']",60.0,-289.59876645,9.529061197888211e-05,0.0,
433,Be4H32I8O40,mp-734194,BeH8(IO5)2,"['Be', 'H', 'I', 'O']",84.0,-414.85950238,0.0014256744428946533,0.0,
14432,Be8F32H64N16,mp-24614,BeH8(NF2)2,"['Be', 'H', 'N', 'F']",120.0,-609.11335394,0.0019376215856068413,0.0,
31691,Be2H16N4O20,mp-706913,BeH8(NO5)2,"['Be', 'H', 'N', 'O']",42.0,-234.81256078,0.005864961432290983,0.0,
27238,Be2H16O16S2,mp-23996,BeH8SO8,"['Be', 'H', 'S', 'O']",36.0,-197.21058211,5.329070518200751e-15,0.0,
19292,Be4H32O32Se4,mp-708961,BeH8SeO8,"['Be', 'H', 'Se', 'O']",72.0,-379.47477205,0.000268706201172364,0.0,
23452,Be2I4,mp-570886,BeI2,"['Be', 'I']",6.0,-17.03656234,0.0008555081323242675,0.0,
20437,Be1Nb1Ru2,mp-867828,BeNbRu2,"['Be', 'Nb', 'Ru']",4.0,-33.49308192,0.08435049835540731,0.0,
6886,Be1Ni1,mp-1033,BeNi,"['Be', 'Ni']",2.0,-10.45611205,0.0004619841857911311,0.0,
4570,Be2O2,mp-2542,BeO,"['Be', 'O']",4.0,-28.41217095,1.0015948486596926e-05,0.0,
20836,Be8P16,mp-27148,BeP2,"['Be', 'P']",24.0,-124.22807291,0.0,0.0,
7189,Be4H16O16P8,mp-695815,BeP2(HO)4,"['Be', 'P', 'H', 'O']",44.0,-250.95610999,0.007310564829140276,0.0,
19594,Be4H16N4O16P4,mp-24473,BePH4NO4,"['Be', 'P', 'H', 'N', 'O']",44.0,-272.50348691,3.599196910553104e-05,0.0,
9085,Be1Pd1,mp-11274,BePd,"['Be', 'Pd']",2.0,-10.10471632,0.0,0.0,
25456,Be1Pd2,mp-13452,BePd2,"['Be', 'Pd']",3.0,-15.61751254,0.005130186353353494,0.0,
9585,Be2Pd6,mp-13453,BePd3,"['Be', 'Pd']",8.0,-41.61395457,0.008402701950989133,0.0,
11865,Be1Rh1,mp-11276,BeRh,"['Be', 'Rh']",2.0,-12.31935258,0.0,0.0,
12743,Be1Ru2W1,mp-862622,BeRu2W,"['Be', 'Ru', 'W']",4.0,-36.07422527,0.0,0.0,
29768,Be1S1,mp-422,BeS,"['Be', 'S']",2.0,-9.98927518,0.0,0.0,
14353,Be1O4S1,mp-5046,BeSO4,"['Be', 'S', 'O']",6.0,-38.73568436,3.309067545576028e-05,0.0,
7917,Be1Se1,mp-1541,BeSe,"['Be', 'Se']",2.0,-8.82210007,6.328821167045362e-05,0.0,
30187,As4Be2Si2,mp-1009087,BeSiAs2,"['Be', 'Si', 'As']",8.0,-38.65259517,0.00014547908569362278,0.0,
865,Be1Ir2Si1,mp-865904,BeSiIr2,"['Be', 'Si', 'Ir']",4.0,-29.49403811,0.020824788753667,0.0,
6084,Be4N8Si4,mp-7913,BeSiN2,"['Be', 'Si', 'N']",16.0,-122.88379803,0.0,0.0,
27554,Be1Ni2Si1,mp-865792,BeSiNi2,"['Be', 'Si', 'Ni']",4.0,-22.82894783,0.0,0.0,
23858,Be1Os2Si1,mp-867107,BeSiOs2,"['Be', 'Si', 'Os']",4.0,-32.80220951,0.017328802207032368,0.0,
5299,Be1Rh2Si1,mp-867767,BeSiRh2,"['Be', 'Si', 'Rh']",4.0,-27.1417139,0.001153835994466057,0.0,
6302,Be1Ru2Si1,mp-867835,BeSiRu2,"['Be', 'Si', 'Ru']",4.0,-29.93211406,0.0,0.0,
28161,As4Be2Sn2,mp-1009084,BeSnAs2,"['Be', 'Sn', 'As']",8.0,-35.53628484,0.000101636363525337,0.0,
19402,Be1Te1,mp-252,BeTe,"['Be', 'Te']",2.0,-7.60144264,0.00010567203491174126,0.0,
16025,Be4F16Tl8,mp-3733,BeTl2F4,"['Be', 'Tl', 'F']",28.0,-132.85032639,0.0,0.0,
15670,As4Be4O16Tl4,mp-1227475,BeTlAsO4,"['Be', 'Tl', 'As', 'O']",28.0,-168.38962228,4.468768415222257e-05,0.0,
28922,Be4O16P4Tl4,mp-1227516,BeTlPO4,"['Be', 'Tl', 'P', 'O']",28.0,-187.04162208,0.0002853084919092197,0.0,
28363,Be1Co2V1,mp-866288,BeVCo2,"['Be', 'V', 'Co']",4.0,-28.21177314,0.0,0.0,
6452,Be1Fe2V1,mp-867304,BeVFe2,"['Be', 'V', 'Fe']",4.0,-30.69272935,0.0,0.0,
20376,Be1Os2V1,mp-867275,BeVOs2,"['Be', 'V', 'Os']",4.0,-36.27136137,0.03949865478249137,0.0,
26931,Be1Ru2V1,mp-867874,BeVRu2,"['Be', 'V', 'Ru']",4.0,-32.77770199,0.019475068601074952,0.0,
24990,Bi2,mp-23152,Bi,['Bi'],2.0,-7.78006862,0.0,0.0,
25832,B12Bi4O24,mp-556548,Bi(BO2)3,"['Bi', 'B', 'O']",40.0,-301.05630908,0.0009880676777340724,0.0,
7910,Bi4I12O36,mp-31259,Bi(IO3)3,"['Bi', 'I', 'O']",52.0,-239.60268535,-8.881784197001252e-15,-8.881784197001252e-15,
27740,Bi4Cl60Mo24,mp-679989,Bi(Mo2Cl5)3,"['Bi', 'Mo', 'Cl']",88.0,-469.20652373,0.009369116840486136,0.0,
3406,Bi4O36P12,mp-27135,Bi(PO3)3,"['Bi', 'P', 'O']",52.0,-363.30181485,3.342554837626466e-05,0.0,
19196,Bi2O8Pd4,mp-1104660,Bi(PdO2)2,"['Bi', 'Pd', 'O']",14.0,-78.65949705,0.0,0.0,
20044,Bi4Cl60W24,mp-569822,Bi(W2Cl5)3,"['Bi', 'W', 'Cl']",88.0,-505.36585287,0.002883473537038661,0.0,
11816,Bi10Mo3O24,mp-558215,Bi10(MoO8)3,"['Bi', 'Mo', 'O']",37.0,-231.17154759,0.0001571544510143852,-4.973799150320701e-14,
2714,Bi24Br4Rh6,mp-645514,Bi12Rh3Br2,"['Bi', 'Rh', 'Br']",34.0,-152.81105711,0.0,0.0,
6176,As6Bi26Mo12O84,mp-1228534,Bi13Mo6(AsO14)3,"['Bi', 'Mo', 'As', 'O']",128.0,-813.08507806,0.002732404739830052,2.4868995751603507e-14,
21512,Bi14Mo1O24,mp-691119,Bi14MoO24,"['Bi', 'Mo', 'O']",39.0,-230.57497145,0.002322791095753729,0.0,
22816,Bi14O24S1,mp-759924,Bi14SO24,"['Bi', 'S', 'O']",39.0,-227.36625209,0.0005136088952326645,0.0,
23950,As4Bi60O100,mp-685318,Bi15AsO25,"['Bi', 'As', 'O']",164.0,-950.67222761,0.004062437787959006,0.0,
10514,Bi8Mo12O48,mp-23388,Bi2(MoO4)3,"['Bi', 'Mo', 'O']",68.0,-456.37901009,5.8071976101636835e-05,0.0,
8145,Bi8P12Se36,mp-28975,Bi2(PSe3)3,"['Bi', 'P', 'Se']",56.0,-232.29287301,0.000131487823661125,0.0,
17197,Bi4Pb6S12,mp-629690,Bi2(PbS2)3,"['Bi', 'Pb', 'S']",22.0,-97.31734519,0.0034645130005994673,0.0,
18573,Bi4O42S12,mp-1200203,Bi2(S2O7)3,"['Bi', 'S', 'O']",58.0,-346.67974871,5.899483028048991e-05,0.0,
3644,Bi4O24S6,mp-760109,Bi2(SO4)3,"['Bi', 'S', 'O']",34.0,-206.0167774,1.611521714117714e-05,1.1546319456101628e-14,
3116,Bi8O36Se12,mp-29833,Bi2(SeO3)3,"['Bi', 'Se', 'O']",56.0,-307.90546139,7.665643554588542e-05,5.329070518200751e-15,
17785,Bi48Cl20O62,mp-560085,Bi24Cl10O31,"['Bi', 'Cl', 'O']",130.0,-693.93343563,0.0003106071533682808,0.0,
6167,Au20Bi8F84,mp-557090,Bi2Au5F21,"['Bi', 'Au', 'F']",112.0,-414.70883026,7.833917899002785e-05,0.0,
11742,Au4Bi8O20,mp-618309,Bi2AuO5,"['Bi', 'Au', 'O']",32.0,-169.38376024,0.003078931062010959,0.0,
31645,B16Bi4O30,mp-542931,Bi2B8O15,"['Bi', 'B', 'O']",50.0,-381.59647094,0.00023642592656258898,0.0,
30559,Bi16C8O40,mp-556210,Bi2CO5,"['Bi', 'C', 'O']",64.0,-420.71771658,1.393466308563518e-05,0.0,
19490,Bi8I16O52,mp-1204764,Bi2I4O13,"['Bi', 'I', 'O']",76.0,-359.72251478,0.0,0.0,
24761,Bi8Ir4,mp-1101783,Bi2Ir,"['Bi', 'Ir']",12.0,-66.7981608,0.0005546999755852156,0.0,
24692,Bi4Ir4O14,mp-558392,Bi2Ir2O7,"['Bi', 'Ir', 'O']",22.0,-142.88391137,7.125608665425887e-05,6.217248937900877e-15,
6982,Bi16Mo16O72,mp-556586,Bi2Mo2O9,"['Bi', 'Mo', 'O']",104.0,-687.54580848,4.2378272235410464e-05,0.0,
10019,Bi4Mo4O26Se4,mp-1200193,Bi2Mo2Se2O13,"['Bi', 'Mo', 'Se', 'O']",38.0,-235.01011914,0.002599500170641811,0.0,
12594,Bi8Mo4O24,mp-23064,Bi2MoO6,"['Bi', 'Mo', 'O']",36.0,-230.82822191,0.000281013025173138,0.0,
31491,Bi8O12,mp-23262,Bi2O3,"['Bi', 'O']",20.0,-115.08635084,8.211315136819053e-05,0.0,
11666,Bi4O14Os4,mp-554545,Bi2Os2O7,"['Bi', 'Os', 'O']",22.0,-152.83116313,0.04125610573508265,0.0,
16698,Bi4O26P8,mp-28541,Bi2P4O13,"['Bi', 'P', 'O']",38.0,-263.61955363,7.826204976701945e-05,1.3322676295501878e-14,
27773,Bi2Pb1Se4,mp-675543,Bi2PbSe4,"['Bi', 'Pb', 'Se']",7.0,-28.53449331,0.0022015782728797006,0.0,
26299,Bi4Pd2,mp-568746,Bi2Pd,"['Bi', 'Pd']",6.0,-27.35800583,0.03312614421875004,0.0,
19703,Bi2O8Pd3Pt1,mp-1227497,Bi2Pd3PtO8,"['Bi', 'Pd', 'Pt', 'O']",14.0,-79.68240309,6.395077706500274e-05,0.0,
18008,Bi4Pd6S4,mp-23012,Bi2Pd3S2,"['Bi', 'Pd', 'S']",14.0,-68.28844315,0.0,0.0,
9654,Bi4Pd6Se4,mp-1103697,Bi2Pd3Se2,"['Bi', 'Pd', 'Se']",14.0,-65.74662028,-8.881784197001252e-16,-8.881784197001252e-16,
23648,Bi4Pd10,mp-30464,Bi2Pd5,"['Bi', 'Pd']",14.0,-71.20551604,0.0,0.0,
11553,Bi8O16Pd4,mp-29259,Bi2PdO4,"['Bi', 'Pd', 'O']",28.0,-159.46555907,0.0,0.0,
16879,Bi2Pd1Pt1,mp-1227322,Bi2PdPt,"['Bi', 'Pd', 'Pt']",4.0,-20.24161734,0.0,0.0,
20971,Bi16Pt8,mp-568531,Bi2Pt,"['Bi', 'Pt']",24.0,-116.74371544,0.0,0.0,
26662,Bi4O14Pt4,mp-23341,Bi2Pt2O7,"['Bi', 'Pt', 'O']",22.0,-128.77597745,0.0,0.0,
14889,Bi8Rh4,mp-23217,Bi2Rh,"['Bi', 'Rh']",12.0,-62.89577003,0.0,0.0,
17824,Bi4O14Rh4,mp-555225,Bi2Rh2O7,"['Bi', 'Rh', 'O']",22.0,-136.76753719,0.0,0.0,
6916,Bi4Rh6S4,mp-977592,Bi2Rh3S2,"['Bi', 'Rh', 'S']",14.0,-81.54981145,0.0006600786621095978,0.0,
16546,Bi4O14Ru4,mp-23445,Bi2Ru2O7,"['Bi', 'Ru', 'O']",22.0,-146.49064934,6.217248937900877e-15,6.217248937900877e-15,
16404,Bi4O2S4,mp-1078366,Bi2S2O,"['Bi', 'S', 'O']",10.0,-48.62854824,4.130026757742655e-05,0.0,
7506,Bi24O108S24,mp-1197960,Bi2S2O9,"['Bi', 'S', 'O']",156.0,-942.0490389,0.0026642364746090053,0.0,
1503,Bi8S12,mp-22856,Bi2S3,"['Bi', 'S']",20.0,-87.6009806,0.0,0.0,
607,Bi4O4S2,mp-27891,Bi2SO2,"['Bi', 'S', 'O']",10.0,-53.25929385,1.562875977079159e-06,0.0,
8566,Bi2Se3,mp-541837,Bi2Se3,"['Bi', 'Se']",5.0,-20.19891165,0.0,0.0,
20435,Bi4O20Se6,mp-1193554,Bi2Se3O10,"['Bi', 'Se', 'O']",30.0,-164.12998345,0.0013136620182292447,0.0,
4290,Bi8Cl28Se16,mp-505564,Bi2Se4Cl7,"['Bi', 'Se', 'Cl']",52.0,-171.45574693,0.04304390258980728,0.0,
6330,Bi2O2Se1,mp-552098,Bi2SeO2,"['Bi', 'Se', 'O']",5.0,-26.08274893,5.3818125976157205e-05,0.0,
4139,Bi8O20Se4,mp-29839,Bi2SeO5,"['Bi', 'Se', 'O']",32.0,-180.88792908,0.0001650046411132422,0.0,
21157,Bi32O112Te32,mp-667426,Bi2Te2O7,"['Bi', 'Te', 'O']",176.0,-986.45048054,0.004297024408747241,0.0,
17075,Bi2S1Te2,mp-27910,Bi2Te2S,"['Bi', 'Te', 'S']",5.0,-19.63311789,0.0,0.0,
18059,Bi2Se1Te2,mp-29666,Bi2Te2Se,"['Bi', 'Te', 'Se']",5.0,-19.07318525,0.0,3.552713678800501e-15,
8647,Bi2Te3,mp-34202,Bi2Te3,"['Bi', 'Te']",5.0,-18.39036103,1.7763568394002505e-15,0.0,
18558,Bi8O44Te16,mp-28990,Bi2Te4O11,"['Bi', 'Te', 'O']",68.0,-376.12087451,-5.329070518200751e-15,-5.329070518200751e-15,
11615,Bi4Cl16Te14,mp-30097,Bi2Te7Cl8,"['Bi', 'Te', 'Cl']",34.0,-107.38120864,0.059815785919564934,1.3322676295501878e-15,
7334,Bi8Cl4I4O32Te4,mp-1194678,Bi2TeIClO8,"['Bi', 'Te', 'I', 'Cl', 'O']",52.0,-264.00874682,0.0002784518915266432,5.329070518200751e-15,
2568,Bi2O2Te1,mp-849872,Bi2TeO2,"['Bi', 'Te', 'O']",5.0,-25.35384263,0.0002381542978522333,0.0,
15294,Bi8O20Te4,mp-23334,Bi2TeO5,"['Bi', 'Te', 'O']",32.0,-181.54436955,0.0001266275268552164,0.0,
17115,Bi4O12Te2,mp-27251,Bi2TeO6,"['Bi', 'Te', 'O']",18.0,-102.0828051,0.02960120388997378,-1.0658141036401503e-14,
22313,Bi8O24W4,mp-23480,Bi2WO6,"['Bi', 'W', 'O']",36.0,-237.8997595,0.0006259161241324307,0.0,
1548,Bi6Cl20Te4,mp-1193877,Bi3(TeCl5)2,"['Bi', 'Te', 'Cl']",30.0,-96.94809534,0.052009779144930324,0.0,
26623,B20Bi12O48,mp-23549,Bi3B5O12,"['Bi', 'B', 'O']",80.0,-579.62466806,0.0,0.0,
27124,Bi3Br1O4,mp-866311,Bi3BrO4,"['Bi', 'Br', 'O']",8.0,-42.85799882,3.583399291962053e-05,0.0,
18771,Bi12Ir12O44,mp-772189,Bi3Ir3O11,"['Bi', 'Ir', 'O']",68.0,-438.37733996,0.011393421483089305,0.0,
2661,Bi18O42P6,mp-775485,Bi3PO7,"['Bi', 'P', 'O']",66.0,-418.78945254,0.011061626628196208,0.0,
31125,Bi12O44Pt12,mp-560373,Bi3Pt3O11,"['Bi', 'Pt', 'O']",68.0,-397.05558532,1.2331001839172018e-05,0.0,
30941,Bi12O44Ru12,mp-504468,Bi3Ru3O11,"['Bi', 'Ru', 'O']",68.0,-450.46179322,5.7828910896340346e-05,0.0,
19969,Bi3Sb1,mp-1227319,Bi3Sb,"['Bi', 'Sb']",4.0,-15.83583736,0.0,0.0,
17520,Bi6O14Sb2,mp-30304,Bi3SbO7,"['Bi', 'Sb', 'O']",22.0,-130.40274052,0.0,0.0,
15652,Au16Bi32O72,mp-559422,Bi4Au2O9,"['Bi', 'Au', 'O']",120.0,-640.02535866,5.263119790654969e-06,0.0,
31237,B8Bi16O36,mp-23356,Bi4B2O9,"['Bi', 'B', 'O']",60.0,-394.26483675,0.0,0.0,
24135,B8Bi32O80P8,mp-1196273,Bi4BPO10,"['Bi', 'B', 'P', 'O']",128.0,-837.68885356,0.0008438507427976916,0.0,
22012,Bi16Br8O20,mp-23544,Bi4Br2O5,"['Bi', 'Br', 'O']",44.0,-227.26630648,-3.9968028886505635e-14,0.0,
19337,Bi16I8O20,mp-30130,Bi4I2O5,"['Bi', 'I', 'O']",44.0,-222.39898359,8.881784197001252e-16,0.0,
8451,Bi8O14,mp-30303,Bi4O7,"['Bi', 'O']",22.0,-125.29616855,0.0,0.0,
27930,Bi48Rh12,mp-30467,Bi4Rh,"['Bi', 'Rh']",60.0,-283.61817085,0.0,0.0,
10039,Bi8Br4Ru2,mp-541772,Bi4RuBr2,"['Bi', 'Ru', 'Br']",14.0,-60.65122179,0.003358985650808499,0.0,
5359,Bi4Te3,mp-28229,Bi4Te3,"['Bi', 'Te']",7.0,-26.19682052,0.0,0.0,
11241,Bi20N4O40,mp-31289,Bi5NO10,"['Bi', 'N', 'O']",64.0,-377.52823809,0.0,0.0,
21216,As4Bi6O20Pb1,mp-1214311,Bi6As4PbO20,"['Bi', 'As', 'Pb', 'O']",31.0,-185.58440598,0.000617601798134082,-2.3092638912203256e-14,
15308,Bi24Cl12F4O28,mp-554249,Bi6Cl3O7F,"['Bi', 'Cl', 'O', 'F']",68.0,-355.10842003,9.49476217648737e-06,0.0,
6923,Bi6O20P4Pb1,mp-505697,Bi6P4PbO20,"['Bi', 'P', 'Pb', 'O']",31.0,-203.88907043,0.0004229344027466553,0.0,
13219,As12Bi28Mo8O96,mp-554090,Bi7Mo2(AsO8)3,"['Bi', 'Mo', 'As', 'O']",144.0,-896.17419029,8.45773003543826e-06,0.0,
17859,Bi7F11O5,mp-1190898,Bi7O5F11,"['Bi', 'O', 'F']",23.0,-120.28906808,0.0001927399405561303,0.0,
11199,As4Bi4O16,mp-27911,BiAsO4,"['Bi', 'As', 'O']",24.0,-144.75884378,0.0027457568066404647,0.0,
21811,Au4Bi2,mp-570113,BiAu2,"['Bi', 'Au']",6.0,-21.15926221,2.185009114574754e-05,0.0,
13029,Au4Bi4Cl24,mp-567414,BiAuCl6,"['Bi', 'Au', 'Cl']",32.0,-93.70326982,0.0012352528936765417,0.0,
11773,B6Bi3F3O12,mp-558753,BiB2O4F,"['Bi', 'B', 'O', 'F']",24.0,-170.0693408,4.132673339896087e-05,0.0,
28678,B4Bi4O12,mp-31250,BiBO3,"['Bi', 'B', 'O']",20.0,-139.21857138,9.095794924363076e-06,1.7763568394002505e-15,
6368,B4Bi4O16Pb4,mp-556601,BiBPbO4,"['Bi', 'B', 'Pb', 'O']",28.0,-183.94718072,0.00027348781808012035,0.0,
12232,Bi4Br12,mp-2913080,BiBr3,"['Bi', 'Br']",16.0,-47.5557097,0.0003128729827879262,0.0,
22724,Bi2Br2O2,mp-23072,BiBrO,"['Bi', 'Br', 'O']",6.0,-27.8406801,0.00037231945393845223,0.0,
6031,Bi4Cl12,mp-22908,BiCl3,"['Bi', 'Cl']",16.0,-52.64515802,0.056983877183227616,0.0,
8800,Bi2Cl2O2,mp-22939,BiClO,"['Bi', 'Cl', 'O']",6.0,-28.94554652,6.38739656571019e-05,0.0,
27341,Bi4F12,mp-23237,BiF3,"['Bi', 'F']",16.0,-77.41255372,0.0,0.0,
22194,Bi1F5,mp-27743,BiF5,"['Bi', 'F']",6.0,-23.91349184,0.00010074303629625803,0.0,
25166,Bi2I6,mp-22849,BiI3,"['Bi', 'I']",8.0,-20.78123965,6.831035156240617e-05,0.0,
8123,Bi2I2O2,mp-22987,BiIO,"['Bi', 'I', 'O']",6.0,-26.60161713,0.0010303949186196704,0.0,
14064,Bi4I4O16,mp-1191266,BiIO4,"['Bi', 'I', 'O']",24.0,-119.48730704,0.00073505009114605,0.0,
18301,Bi4Ir4S4,mp-1102836,BiIrS,"['Bi', 'Ir', 'S']",12.0,-70.48013028,0.00025971726725249056,0.0,
28212,Bi4Ir4Se4,mp-1103228,BiIrSe,"['Bi', 'Ir', 'Se']",12.0,-67.90616461,-8.881784197001252e-16,-8.881784197001252e-16,