,Composition,MaterialId,Reduced Formula,Elements,NSites,Corrected Energy,Decomposition Energy Per Atom All,Decomposition Energy Per Atom MP,Directory
29514,Cs4H12O32S8,mp-1213543,CsH3(SO4)2,"['Cs', 'H', 'S', 'O']",56.0,-312.81853659,0.000855844235490899,0.0,
7235,Cs2H6O12Se4,mp-1228884,CsH3(SeO3)2,"['Cs', 'H', 'Se', 'O']",24.0,-120.96573554,0.0005714236263028027,0.0,
27827,Cs4H12O32Se8,mp-1197584,CsH3(SeO4)2,"['Cs', 'H', 'Se', 'O']",56.0,-282.89831119,0.00035118480468732116,-9.769962616701378e-15,
18060,Cs1H3O2,mp-626417,CsH3O2,"['Cs', 'H', 'O']",6.0,-28.2669574,0.0028326437215175915,0.0,
8267,Cs8H32N8O8,mp-1202018,CsH4NO,"['Cs', 'H', 'N', 'O']",56.0,-263.68945032,0.001581562540457604,0.0,
2869,Cs4H20N8,mp-1198227,CsH5N2,"['Cs', 'H', 'N']",32.0,-148.64582158,0.004725203005366829,0.0,
622,Cs8H40O24,mp-541005,CsH5O3,"['Cs', 'H', 'O']",72.0,-346.09722154,2.138798068518355e-05,0.0,
25631,Cs4H28O16,mp-28204,CsH7O4,"['Cs', 'H', 'O']",48.0,-232.94714728,2.0358994140323716e-05,0.0,
18267,C4Cs4H4O12,mp-1238754,CsHCO3,"['Cs', 'H', 'C', 'O']",24.0,-150.11498456,0.005337771018879778,0.0,
29826,Cs2F4H2,mp-24668,CsHF2,"['Cs', 'H', 'F']",8.0,-34.24404209,0.007319792918701218,0.0,
9211,Cs2F14H2I2,mp-699173,CsHIF7,"['Cs', 'H', 'I', 'F']",20.0,-76.41128126,0.002716005969722879,8.881784197001252e-16,
9705,Cs2H2O2,mp-625136,CsHO,"['Cs', 'H', 'O']",6.0,-26.0543018,0.0038978277465817612,0.0,
17489,Cs4H4O64Pt8S16,mp-1204209,CsHPt2(SO4)4,"['Cs', 'H', 'Pt', 'S', 'O']",96.0,-560.99324452,9.471243815184494e-05,-2.6645352591003757e-15,
10334,Cs4H4S4,mp-1183955,CsHS,"['Cs', 'H', 'S']",12.0,-42.89405951,0.010092079102376417,0.0,
14976,Cs2F4H2O12S4,mp-643586,CsHS2(O3F)2,"['Cs', 'H', 'S', 'O', 'F']",24.0,-130.37350929,0.0022305699479172603,0.0,
2978,Cs2H2O14S4,mp-1190463,CsHS2O7,"['Cs', 'H', 'S', 'O']",22.0,-125.85629193,0.0004395946679691676,0.0,
17132,Cs4H4O16S4,mp-1192419,CsHSO4,"['Cs', 'H', 'S', 'O']",28.0,-156.80701095,0.00022071750139573965,0.0,
13295,Cs4H4O16Se4,mp-24141,CsHSeO4,"['Cs', 'H', 'Se', 'O']",28.0,-141.67032606,0.00010942695173010719,0.0,
9273,Br18Cs2Hf4,mp-1190089,CsHf2Br9,"['Cs', 'Hf', 'Br']",24.0,-107.76401688,0.001240004064127831,-8.881784197001252e-15,
22298,C4Cl60Cs4Hf24,mp-1213477,CsHf6CCl15,"['Cs', 'Hf', 'C', 'Cl']",92.0,-554.87080982,0.0003589742306386867,2.6645352591003757e-15,
12772,Cs4Hg4,mp-1080797,CsHg,"['Cs', 'Hg']",8.0,-6.52555971,0.02497247775277689,0.0,
19509,Cs2Hg4,mp-574379,CsHg2,"['Cs', 'Hg']",6.0,-4.54743301,0.001179040925699315,0.0,
18498,Br10Cs2Hg4,mp-619510,CsHg2Br5,"['Cs', 'Hg', 'Br']",16.0,-32.60208058,0.002340132817385321,2.220446049250313e-15,
17402,Cl11Cs1Hg5,mp-1542042,CsHg5Cl11,"['Cs', 'Hg', 'Cl']",17.0,-36.03299834,0.0013680979019747852,8.881784197001252e-15,
5435,Cl27Cs9Hg9,mp-29845,CsHgCl3,"['Cs', 'Hg', 'Cl']",45.0,-114.1776078,4.288981770850242e-05,0.0,
30723,Cs1F3Hg1,mp-561947,CsHgF3,"['Cs', 'Hg', 'F']",5.0,-16.80743973,3.199418554711286e-05,0.0,
30538,Cs2Ho2Mo4O16,mp-1213347,CsHo(MoO4)2,"['Cs', 'Ho', 'Mo', 'O']",24.0,-171.02092296,0.02160326187988204,0.0,
30197,Br36Cs2Ho2Nb12,mp-1213418,CsHo(NbBr3)6,"['Cs', 'Ho', 'Nb', 'Br']",52.0,-250.63050694,0.003581423592228461,-1.865174681370263e-14,
12865,Cs2Ho2O16W4,mp-1213191,CsHo(WO4)2,"['Cs', 'Ho', 'W', 'O']",24.0,-176.7243648,0.0012234016845695805,0.0,
26307,Ag6Cs2Ho4Te10,mp-1190472,CsHo2Ag3Te5,"['Cs', 'Ho', 'Ag', 'Te']",22.0,-87.6542937,0.0012167414417616484,0.0,
10843,Cl28Cs4Ho8,mp-1213367,CsHo2Cl7,"['Cs', 'Ho', 'Cl']",40.0,-182.62272709,1.1461421883574019e-05,8.881784197001252e-15,
25862,Cs2Cu6Ho4Se10,mp-672258,CsHo2Cu3Se5,"['Cs', 'Ho', 'Cu', 'Se']",22.0,-104.06377085,0.005637871013576046,0.0,
2373,Cs4Ho12Te20,mp-18505,CsHo3Te5,"['Cs', 'Ho', 'Te']",36.0,-172.05751837,7.475155165082015e-06,0.0,
2429,Cd2Cs2Ho2Te6,mp-12490,CsHoCdTe3,"['Cs', 'Ho', 'Cd', 'Te']",12.0,-44.5799694,4.416658528239026e-06,0.0,
27889,Cs2Ho2Mn2Se6,mp-1213649,CsHoMnSe3,"['Cs', 'Ho', 'Mn', 'Se']",12.0,-66.22105163,0.0017041630761722715,0.0,
6258,Cs2Ho2O4,mp-754154,CsHoO2,"['Cs', 'Ho', 'O']",8.0,-51.81621465,0.006999380488586837,0.0,
11181,Cs2Ho2S4,mp-1078726,CsHoS2,"['Cs', 'Ho', 'S']",8.0,-42.04393966,0.0,0.0,
17458,Cs4Ho4S16Si4,mp-1193331,CsHoSiS4,"['Cs', 'Ho', 'Si', 'S']",28.0,-149.90880868,0.0013256543554689415,0.0,
7872,Cs2Ho2Se6Zn2,mp-505712,CsHoZnSe3,"['Cs', 'Ho', 'Zn', 'Se']",12.0,-51.41819693,1.8557224936266437e-05,-4.440892098500626e-15,
19778,Cs2Ho2Te6Zn2,mp-579556,CsHoZnTe3,"['Cs', 'Ho', 'Zn', 'Te']",12.0,-45.45535875,8.210449220502625e-06,0.0,
1035,Cs1I1,mp-614603,CsI,"['Cs', 'I']",2.0,-5.5112823,0.0,0.0,
2427,Cs4I12,mp-22876,CsI3,"['Cs', 'I']",16.0,-35.18837319,-8.881784197001252e-16,-8.881784197001252e-16,
28222,Cs8F128I24,mp-28578,CsI3F16,"['Cs', 'I', 'F']",160.0,-567.7895652,7.105427357601002e-15,0.0,
8711,Cs4I16,mp-571011,CsI4,"['Cs', 'I']",20.0,-41.46751307,0.00026627307470672434,0.0,
30083,Cl2Cs1I1,mp-22990,CsICl2,"['Cs', 'I', 'Cl']",4.0,-10.55834501,0.029217764640316002,0.0,
30373,Cs2I2O6,mp-28295,CsIO3,"['Cs', 'I', 'O']",10.0,-44.15701017,0.0016022331220790775,8.881784197001252e-15,
15197,Cs4I4O16,mp-23489,CsIO4,"['Cs', 'I', 'O']",24.0,-105.93292291,0.006893318284505234,0.0,
8805,Cs4F16I4O4,mp-560851,CsIOF4,"['Cs', 'I', 'O', 'F']",28.0,-110.68197973,0.00017832969377806762,0.0,
19140,Cs12In12O144P48,mp-16464,CsIn(PO3)4,"['O', 'P', 'In', 'Cs']",216.0,-1477.21621453,0.0,0.0,
26810,Cs3In9,mp-542339,CsIn3,"['Cs', 'In']",12.0,-28.98755582,0.0,0.0,
2481,Cs4H24In12O80Se24,mp-1229308,CsIn3H6(Se3O10)2,"['Cs', 'In', 'H', 'Se', 'O']",144.0,-755.42032239,0.005996618466796555,9.769962616701378e-15,
16445,Cs4In12O20,mp-559213,CsIn3O5,"['Cs', 'In', 'O']",36.0,-191.06196987,0.0,0.0,
25926,Cs1In5S8,mp-22007,CsIn5S8,"['Cs', 'In', 'S']",14.0,-56.92366477,0.00824066340123597,-7.993605777301127e-15,
3375,Br6Cs2In2,mp-1112338,CsInBr3,"['Cs', 'In', 'Br']",10.0,-29.41470632,0.0020274545478518036,0.0,
223,Cl6Cs2In2,mp-1112961,CsInCl3,"['Cs', 'In', 'Cl']",10.0,-32.87330465,0.0019984931298826503,0.0,
6547,Cs1Cu1In1O18P6,mp-1226046,CsInCu(PO3)6,"['Cs', 'In', 'Cu', 'P', 'O']",27.0,-183.83733503,0.001021906802661121,0.0,
15107,Cs2Cu2F12In2,mp-1225976,CsInCuF6,"['Cs', 'In', 'Cu', 'F']",18.0,-79.15019947,0.012906816045282099,0.0,
23450,Cs2F6In2,mp-1112960,CsInF3,"['Cs', 'In', 'F']",10.0,-43.57806778,0.00804904366471515,0.0,
31344,Cs8Hg8In8S24,mp-1194853,CsInHgS3,"['Cs', 'In', 'Hg', 'S']",48.0,-163.7201562,3.6001611328106975e-05,0.0,
27454,Cs4I16In4,mp-607987,CsInI4,"['Cs', 'In', 'I']",24.0,-60.79510547,0.0016270726000975344,0.0,
26188,Cs4In4O28P8,mp-1200734,CsInP2O7,"['Cs', 'In', 'P', 'O']",44.0,-291.97264998,0.0001442354066165663,0.0,
19639,Cs8In8S16,mp-559459,CsInS2,"['Cs', 'In', 'S']",32.0,-126.02190565,0.0,0.0,
2504,Cs8In8Se16,mp-1200720,CsInSe2,"['Cs', 'In', 'Se']",32.0,-115.12291033,2.3878389892928453e-05,8.881784197001252e-16,
22060,Cs8In8Te16,mp-1199743,CsInTe2,"['Cs', 'In', 'Te']",32.0,-102.95327096,0.00028532140991233135,0.0,
14762,Cs2In2O16Te6,mp-1192413,CsInTe3O8,"['Cs', 'In', 'Te', 'O']",26.0,-138.90058784,0.00042980682240578716,-1.0658141036401503e-14,
31153,Cl2Cs1K1O8,mp-554015,CsK(ClO4)2,"['Cs', 'K', 'Cl', 'O']",12.0,-52.9573241,2.1555305989018336e-05,0.0,
28510,Au4Cs4K8O8,mp-557807,CsK2AuO2,"['Cs', 'K', 'Au', 'O']",24.0,-89.96285596,7.687619872687179e-05,0.0,
31585,Bi1Cs1K2,mp-863759,CsK2Bi,"['Cs', 'K', 'Bi']",4.0,-8.38673708,0.008229093043619962,0.0,
28881,Bi4Cl24Cs4K8,mp-571371,CsK2BiCl6,"['Cs', 'K', 'Bi', 'Cl']",40.0,-137.39170203,0.000202911286133034,0.0,
23330,Co4Cs4K8O8,mp-551244,CsK2CoO2,"['Cs', 'K', 'Co', 'O']",24.0,-98.26752052,0.0,0.0,
22319,Cs1Ho1K2O8P2,mp-573324,CsK2Ho(PO4)2,"['Cs', 'K', 'Ho', 'P', 'O']",14.0,-94.48665829,0.0001416956291873106,0.0,
3842,Cs2K4La2O16V4,mp-1213137,CsK2LaV2O8,"['Cs', 'K', 'La', 'V', 'O']",28.0,-189.98811494,0.0009413513685689878,0.0,
16269,Cs2F10K4Pd2,mp-8959,CsK2PdF5,"['Cs', 'K', 'Pd', 'F']",18.0,-76.65027477,0.0012716116997610882,0.0,
24723,Cs1K2Sb1,mp-581024,CsK2Sb,"['Cs', 'K', 'Sb']",4.0,-8.75058553,0.01162217504852281,0.0,
26964,Cs1K2O8P2Sc1,mp-8564,CsK2Sc(PO4)2,"['Cs', 'K', 'Sc', 'P', 'O']",14.0,-95.62511033,0.0,0.0,
21361,Cs8Ga8K32O32,mp-14429,CsK4GaO4,"['Cs', 'K', 'Ga', 'O']",80.0,-340.40299129,0.0,7.993605777301127e-15,
5733,Cs8K32O32Tl8,mp-562074,CsK4TlO4,"['Cs', 'K', 'Tl', 'O']",80.0,-309.79782353,7.105427357601002e-15,0.0,
15890,Cs4K20O36Ru8,mp-654335,CsK5Ru2O9,"['Cs', 'K', 'Ru', 'O']",68.0,-366.22933528,0.0397674460864792,0.0,
66,Cs1K5S17Sn5Zn4,mp-641018,CsK5Zn4Sn5S17,"['Cs', 'K', 'Zn', 'Sn', 'S']",32.0,-128.14266746,0.00011816470214842667,0.0,
17999,Cs1K1Li12Na2O16Si4,mp-17718,CsKNa2Li12(SiO4)4,"['Cs', 'K', 'Na', 'Li', 'Si', 'O']",36.0,-211.73517449,0.01512946769856871,-8.79296635503124e-14,
3561,Cs2K2O56Pt12S12,mp-645189,CsKPt6(S3O14)2,"['Cs', 'K', 'Pt', 'S', 'O']",84.0,-495.12056956,0.0052972269177828935,0.0,
13910,Cs4H24K4O40S4Te4,mp-559375,CsKTeH6SO10,"['Cs', 'K', 'Te', 'H', 'S', 'O']",80.0,-421.71302799,7.624009082007888e-05,0.0,
4726,B4Cl60Cs4K4Zr24,mp-1213422,CsKZr6BCl15,"['Cs', 'K', 'Zr', 'B', 'Cl']",96.0,-524.73508793,0.00016896524739618002,5.329070518200751e-15,
27319,Br36Cs2La2Nb12,mp-1213403,CsLa(NbBr3)6,"['Cs', 'La', 'Nb', 'Br']",52.0,-252.54880769,0.0038332646379188873,-1.865174681370263e-14,
26518,Cs2La2O24P8,mp-559234,CsLa(PO3)4,"['Cs', 'La', 'P', 'O']",36.0,-263.08568657,7.073167097892963e-05,-2.7533531010703882e-14,
14204,Cs4La4O32S8,mp-560260,CsLa(SO4)2,"['Cs', 'La', 'S', 'O']",48.0,-316.74060803,0.00011319737304837929,0.0,
3772,Br36Cs2La2Ta12,mp-1213395,CsLa(TaBr3)6,"['Cs', 'La', 'Ta', 'Br']",52.0,-272.70580749,0.004378138713942548,0.0,
29671,Cs2La2O16W4,mp-1213173,CsLa(WO4)2,"['Cs', 'La', 'W', 'O']",24.0,-177.72909692,0.0007674663867192066,0.0,
15388,Br28Cs4La8,mp-1213600,CsLa2Br7,"['Cs', 'La', 'Br']",40.0,-169.76404214,4.440892098500626e-15,4.440892098500626e-15,
18172,Cs2Cu2La4Se8,mp-505815,CsLa2CuSe4,"['Cs', 'La', 'Cu', 'Se']",16.0,-83.05551215,4.198049316439523e-05,0.0,
18553,Cd2Cs2La2Te6,mp-12491,CsLaCdTe3,"['Cs', 'La', 'Cd', 'Te']",12.0,-46.32942965,0.0,-3.552713678800501e-15,
28689,Cs2Hg2La2Se6,mp-11124,CsLaHgSe3,"['Cs', 'La', 'Hg', 'Se']",12.0,-48.81296409,-3.552713678800501e-15,0.0,
27753,Cs2La2O4,mp-1178449,CsLaO2,"['Cs', 'La', 'O']",8.0,-52.04724532,4.206220336921973e-05,0.0,
6152,Cs1La1S2,mp-561586,CsLaS2,"['Cs', 'La', 'S']",4.0,-21.59081492,0.0008936401477050993,0.0,
5339,Cs2La2Te6Zn2,mp-510460,CsLaZnTe3,"['Cs', 'La', 'Zn', 'Te']",12.0,-46.93243476,0.0014852569181318387,1.7763568394002505e-15,
11934,C2Cl36Cs2La2Zr12,mp-1213380,CsLaZr6CCl18,"['Cs', 'La', 'Zr', 'C', 'Cl']",54.0,-301.6857649,0.0003051666015627674,0.0,
16633,Cl36Cs2Fe2La2Zr12,mp-569543,CsLaZr6FeCl18,"['Cs', 'La', 'Zr', 'Fe', 'Cl']",54.0,-295.92089564,6.398500144921826e-05,0.0,
11396,B12Cs2Li2O20,mp-1019715,CsLi(B3O5)2,"['Cs', 'Li', 'B', 'O']",36.0,-273.30201672,0.0026645203645836446,0.0,
18451,Cs3H12Li3N6,mp-642740,CsLi(H2N)2,"['Cs', 'Li', 'H', 'N']",24.0,-109.33008103,0.0043896570955404,-4.440892098500626e-15,
1485,Cs8Li8O48P16,mp-560667,CsLi(PO3)2,"['Cs', 'Li', 'P', 'O']",80.0,-529.57760345,0.006339081630859056,0.0,
11014,Cs2H6Li4O6,mp-697181,CsLi2(HO)3,"['Cs', 'Li', 'H', 'O']",18.0,-85.89532993,0.012272954057074514,0.0,
14101,B4Cs4Li8S12,mp-559238,CsLi2BS3,"['Cs', 'Li', 'B', 'S']",28.0,-125.39247331,0.010323609754927965,0.0,
3061,B20Cs4Gd16Li8O60,mp-1197930,CsLi2Gd4(BO3)5,"['Cs', 'Li', 'Gd', 'B', 'O']",108.0,-982.35701345,0.007472075456325555,0.0,
5562,B20Cs4Li16O40,mp-1019716,CsLi4(BO2)5,"['Cs', 'Li', 'B', 'O']",80.0,-556.1308021,0.009112257685573333,0.0,
9818,B4Cs2Li10O12,mp-555082,CsLi5(BO3)2,"['Cs', 'Li', 'B', 'O']",28.0,-168.71289614,0.017820551501116277,0.0,
24453,Cs4Li20Mn4O56P16,mp-1195536,CsLi5Mn(P2O7)2,"['Cs', 'Li', 'Mn', 'P', 'O']",100.0,-667.09503673,0.006794813364066954,0.0,
30026,Be4Cs4F16Li4,mp-18704,CsLiBeF4,"['Cs', 'Li', 'Be', 'F']",28.0,-143.33346942,0.008181782363281265,0.0,
26834,Cl8Cs4Li4,mp-1188344,CsLiCl2,"['Cs', 'Li', 'Cl']",16.0,-56.33619973,0.005450232023926027,0.0,
31264,Cr4Cs4Li4O16,mp-561778,CsLiCrO4,"['Cs', 'Li', 'Cr', 'O']",28.0,-168.71711466,0.010006280976562643,0.0,
12416,Cs4F8Li4,mp-7594,CsLiF2,"['Cs', 'Li', 'F']",16.0,-70.96235394,0.01402913683715834,0.0,
16771,Cs1Li1Mn1S2,mp-1225894,CsLiMnS2,"['Cs', 'Li', 'Mn', 'S']",5.0,-25.49088727,0.0040481441445310296,-9.769962616701378e-15,
2522,Cs1Li1Mo1O4,mp-551629,CsLiMoO4,"['Cs', 'Li', 'Mo', 'O']",7.0,-43.32714205,0.007855483161272048,0.0,
21414,Cs4Li4O16S4,mp-6726,CsLiSO4,"['Cs', 'Li', 'S', 'O']",28.0,-160.42990436,0.006337888370536504,1.0658141036401503e-14,
8282,Cs1Li1O4W1,mp-1178391,CsLiWO4,"['Cs', 'Li', 'W', 'O']",7.0,-44.63097498,0.008714899794921571,0.0,
12657,Cs1Li1S2Zn1,mp-1225887,CsLiZnS2,"['Cs', 'Li', 'Zn', 'S']",5.0,-17.9831586,0.004262548798827925,0.0,
30372,Cs1Lu1Mo2O8,mp-1213076,CsLu(MoO4)2,"['Cs', 'Lu', 'Mo', 'O']",12.0,-85.84034602,0.0031289205338538295,0.0,
695,Br36Cs2Lu2Nb12,mp-1213352,CsLu(NbBr3)6,"['Cs', 'Lu', 'Nb', 'Br']",52.0,-250.18762377,0.004109257803466271,0.0,
7777,Cl36Cs2Lu2Nb12,mp-570921,CsLu(NbCl3)6,"['Cs', 'Lu', 'Nb', 'Cl']",52.0,-275.93887431,2.9399349439351852e-05,0.0,
27102,Br36Cs2Lu2Ta12,mp-1213389,CsLu(TaBr3)6,"['Cs', 'Lu', 'Ta', 'Br']",52.0,-270.32010896,0.005823949725058952,0.0,
27720,Cl28Cs4Lu8,mp-1213268,CsLu2Cl7,"['Cs', 'Lu', 'Cl']",40.0,-180.92910099,0.016214316884113344,8.881784197001252e-16,
28568,Cs4F40Lu12,mp-1213386,CsLu3F10,"['Cs', 'Lu', 'F']",56.0,-357.73616494,0.00022817734096047815,0.0,
21714,Cs4Lu28S44,mp-1202825,CsLu7S11,"['Cs', 'Lu', 'S']",76.0,-467.06148909,0.0001697538270963861,0.0,
23260,Cs4Lu28Se44,mp-1203743,CsLu7Se11,"['Cs', 'Lu', 'Se']",76.0,-423.26905964,8.538084189879669e-05,0.0,
8371,Cd2Cs2Lu2Te6,mp-12492,CsLuCdTe3,"['Cs', 'Lu', 'Cd', 'Te']",12.0,-44.0595173,0.003172012618000597,0.0,
9938,Cs4Lu4O28P8,mp-554854,CsLuP2O7,"['Cs', 'Lu', 'P', 'O']",44.0,-323.83592128,7.857131747268653e-05,0.0,
15540,Cs2Lu2S4,mp-1087532,CsLuS2,"['Cs', 'Lu', 'S']",8.0,-41.79780192,2.9700032959212308e-05,0.0,
1014,Cs12Mg12O108P36,mp-1229321,CsMg(PO3)3,"['Cs', 'Mg', 'P', 'O']",168.0,-1157.04054059,0.0,0.0,
21298,As1Cs1H12Mg1O10,mp-1193046,CsMgAs(H6O5)2,"['Cs', 'Mg', 'As', 'H', 'O']",25.0,-130.2079055,0.0,0.0,
24084,Br6Cs2Mg2,mp-29750,CsMgBr3,"['Cs', 'Mg', 'Br']",10.0,-31.42699323,0.0,0.0,
15692,Cl6Cs2Mg2,mp-23004,CsMgCl3,"['Cs', 'Mg', 'Cl']",10.0,-35.62125774,0.0,0.0,
21277,Cs2I6Mg2,mp-29751,CsMgI3,"['Cs', 'Mg', 'I']",10.0,-26.83270538,0.0,0.0,
29418,Cs1H12Mg1O10P1,mp-761178,CsMgP(H6O5)2,"['Cs', 'Mg', 'P', 'H', 'O']",25.0,-134.74934564,-3.9968028886505635e-14,0.0,
28332,Cs4Mg4O16P4,mp-18329,CsMgPO4,"['Cs', 'Mg', 'P', 'O']",28.0,-181.37908573,0.0,0.0,
28352,Cs2Mn2O24P8,mp-560117,CsMn(PO3)4,"['Cs', 'Mn', 'P', 'O']",36.0,-255.09236033,0.00018370285590307844,0.0,
697,Cs2Mn4O36P12,mp-1226351,CsMn2(PO3)6,"['Cs', 'Mn', 'P', 'O']",54.0,-389.95474212,0.0,0.0,
28355,Cs4Mn8N12,mp-1029801,CsMn2N3,"['Cs', 'Mn', 'N']",24.0,-181.40443259,0.09260513659993475,0.0,
25018,Br6Cs2Mn2,mp-23048,CsMnBr3,"['Cs', 'Mn', 'Br']",10.0,-42.43524619,-4.440892098500626e-15,-4.440892098500626e-15,
5117,Cl9Cs3Mn3,mp-23336,CsMnCl3,"['Cs', 'Mn', 'Cl']",15.0,-69.15320833,0.008253253056961896,-4.440892098500626e-15,
26448,Cr2Cs2F12Mn2,mp-1228863,CsMnCrF6,"['Cs', 'Mn', 'Cr', 'F']",18.0,-104.98996214,0.00022950337131089071,6.217248937900877e-15,
12719,Cs6F18Mn6,mp-558702,CsMnF3,"['Cs', 'Mn', 'F']",30.0,-166.18072201,4.5032934890443244e-05,-5.329070518200751e-15,
4834,Cs4F16Mn4,mp-554411,CsMnF4,"['Cs', 'Mn', 'F']",24.0,-127.49075541,5.0576178384886816e-05,0.0,
15048,Cs2F12Fe2Mn2,mp-1228982,CsMnFeF6,"['Cs', 'Mn', 'Fe', 'F']",18.0,-98.66359269,0.00011798220161640671,1.0658141036401503e-14,
23942,Cs2Ga4H8Mn2O28P6,mp-1204881,CsMnGa2P3(H2O7)2,"['Cs', 'Mn', 'Ga', 'P', 'H', 'O']",50.0,-322.12080323,0.00036878891562519556,4.884981308350689e-14,
3386,Cs4F16H16Mn4O8,mp-758775,CsMnH4(OF2)2,"['Cs', 'Mn', 'H', 'O', 'F']",48.0,-246.73642571,1.9532734375715677e-05,0.0,
20711,Cl12Cs4H16Mn4O8,mp-1202031,CsMnH4Cl3O2,"['Cs', 'Mn', 'H', 'Cl', 'O']",44.0,-206.98837032,0.0002884836052912121,0.0,
27064,Cs4Mn4O16,mp-18994,CsMnO4,"['Cs', 'Mn', 'O']",24.0,-137.53463163,1.556237304622954e-05,0.0,
27007,Cs1H1Mn1O10P3,mp-23871,CsMnP3HO10,"['Cs', 'Mn', 'P', 'H', 'O']",16.0,-110.43289279,-3.552713678800501e-15,0.0,
21463,Cs2F12Mn2V2,mp-1225934,CsMnVF6,"['Cs', 'Mn', 'V', 'F']",18.0,-105.6402669,0.00211197615018488,0.0,
20327,Cs4Mo4O32P8,mp-541428,CsMo(PO4)2,"['Cs', 'Mo', 'P', 'O']",48.0,-334.71402269,0.0006381025276684937,1.3322676295501878e-14,
5722,Cs4Mo8O44P8,mp-572395,CsMo2P2O11,"['Cs', 'Mo', 'P', 'O']",64.0,-448.42106915,0.000673396154785344,0.0,
27442,Cs4Mo8O52P12,mp-1199248,CsMo2P3O13,"['Cs', 'Mo', 'P', 'O']",76.0,-538.98199498,7.105427357601002e-15,0.0,
7985,Br12Cl16Cs4Mo12,mp-581922,CsMo3Br3Cl4,"['Cs', 'Mo', 'Br', 'Cl']",44.0,-228.56541617,4.630830344520831e-05,-5.329070518200751e-15,
1674,Cl28Cs4Mo12,mp-1213536,CsMo3Cl7,"['Cs', 'Mo', 'Cl']",44.0,-235.53978561,0.0,0.0,
8650,Cs2Mo8O56P14,mp-558321,CsMo4(PO4)7,"['Cs', 'Mo', 'P', 'O']",80.0,-574.02678296,-5.684341886080802e-14,0.0,
29113,As4Cs4H8Mo4O28,mp-1205190,CsMoAsH2O7,"['Cs', 'Mo', 'As', 'H', 'O']",48.0,-285.39069072,0.0017617889957683985,0.0,
29945,Cs8F56Mo8,mp-28936,CsMoF7,"['Cs', 'Mo', 'F']",72.0,-347.33338199,0.0,0.0,
8673,Cs4I4Mo4O24,mp-554274,CsMoIO6,"['Cs', 'Mo', 'I', 'O']",36.0,-201.64133265,0.0003971385742191913,0.0,
26485,Cs8Mo8N16,mp-1080845,CsMoN2,"['Cs', 'Mo', 'N']",32.0,-240.65196386,0.0005278398852537336,0.0,
10984,Cs2Mo2N6O22,mp-1200253,CsMoN3O11,"['Cs', 'Mo', 'N', 'O']",32.0,-200.73554606,0.0005028750476077093,0.0,
29616,Cs2F6Mo2O4,mp-1104015,CsMoO2F3,"['Cs', 'Mo', 'O', 'F']",14.0,-79.21867863,0.00016066775112744125,0.0,
18341,Cs4H4Mo4O36P8,mp-1203598,CsMoP2HO9,"['Cs', 'Mo', 'P', 'H', 'O']",56.0,-375.94480305,0.0007574755301602565,0.0,
17619,Cs4Mo4O28P8,mp-18496,CsMoP2O7,"['Cs', 'Mo', 'P', 'O']",44.0,-310.91987597,0.0,-3.552713678800501e-15,
6911,Cs4Mo4O24P4,mp-18527,CsMoPO6,"['Cs', 'Mo', 'P', 'O']",36.0,-243.86293755,6.72604166673807e-06,0.0,
6215,Cs2N6,mp-510557,CsN3,"['Cs', 'N']",8.0,-52.9887838,0.0012484834350585672,0.0,
5062,Cs3N3O6,mp-3288,CsNO2,"['Cs', 'N', 'O']",12.0,-68.51783919,0.01482438894165039,0.0,
1130,Cs9N9O27,mp-561851,CsNO3,"['Cs', 'N', 'O']",45.0,-261.91719411,0.007842255590494673,0.0,
22462,B2Cs2Na4O6,mp-8871,CsNa2BO3,"['Cs', 'Na', 'B', 'O']",14.0,-77.24374073,0.0007774522167975917,0.0,
13140,Cs4H12Na8O48S12,mp-1205112,CsNa2H3(SO4)3,"['Cs', 'Na', 'H', 'S', 'O']",84.0,-470.77633975,0.0027278104771211176,0.0,
26215,Cs4Na12O16Pb4,mp-505396,CsNa3PbO4,"['Cs', 'Na', 'Pb', 'O']",36.0,-160.05209663,0.0010965488248704247,0.0,
22991,Cs4Na12O16Ti4,mp-18182,CsNa3TiO4,"['Cs', 'Na', 'Ti', 'O']",36.0,-205.71577307,0.0009551086783856633,0.0,
18191,Cs1Mo2Na3O20U4,mp-1194022,CsNa3U4(MoO10)2,"['Cs', 'Na', 'U', 'Mo', 'O']",30.0,-239.0424749,3.019806626980426e-14,3.019806626980426e-14,
19351,Cs8N48Na40W16,mp-581834,CsNa5(WN3)2,"['Cs', 'Na', 'W', 'N']",112.0,-717.83466346,0.0011007700627789774,0.0,
5805,Cs4F12Na4,mp-998609,CsNaF3,"['Cs', 'Na', 'F']",20.0,-74.4855673,0.03652636713195889,0.0,
10290,Cs2Na2S2,mp-6973,CsNaS,"['Cs', 'Na', 'S']",6.0,-18.99512756,0.0007810064388023008,0.0,
8054,Cs2Na2Se2,mp-8658,CsNaSe,"['Cs', 'Na', 'Se']",6.0,-17.95032359,0.0007714823551427941,-8.881784197001252e-16,
22993,Cs8Na8O40Si16,mp-572951,CsNaSi2O5,"['Cs', 'Na', 'Si', 'O']",72.0,-484.40765753,0.0002934087358941184,0.0,
1222,Cs8F48Na8Sn8,mp-14380,CsNaSnF6,"['Cs', 'Na', 'Sn', 'F']",72.0,-337.27840171,0.0012144151334547715,0.0,
12486,Cs2Na2Te2,mp-5339,CsNaTe,"['Cs', 'Na', 'Te']",6.0,-16.78611009,0.0006341429182934455,-4.440892098500626e-16,
8549,Cs2Na2O6Ti2,mp-560791,CsNaTiO3,"['Cs', 'Na', 'Ti', 'O']",12.0,-78.76062965,0.0004806305664066812,0.0,
27681,B4Cs2Nb2O12,mp-6257,CsNb(BO3)2,"['Cs', 'Nb', 'B', 'O']",20.0,-157.82558994,1.0327851267533106e-06,0.0,
17408,Cs4Cu8Nb4Te16,mp-505321,CsNb(CuTe2)2,"['Cs', 'Nb', 'Cu', 'Te']",32.0,-142.8666165,0.0005313630371093225,0.0,
7581,Cs1Nb1O8P2,mp-555286,CsNb(PO4)2,"['Cs', 'Nb', 'P', 'O']",12.0,-90.10213034,0.0005854670686851193,0.0,