,Composition,MaterialId,Reduced Formula,Elements,NSites,Corrected Energy,Decomposition Energy Per Atom All,Decomposition Energy Per Atom MP,Directory
10455,Dy2Ru4Zn40,mp-580113,Dy(Zn10Ru)2,"['Dy', 'Zn', 'Ru']",46.0,-105.7276086,1.0429976214698655e-05,0.0,
28567,Dy2P6Zn6,mp-1213039,Dy(ZnP)3,"['Dy', 'Zn', 'P']",14.0,-57.74110931,1.8703198939817867e-05,0.0,
29917,Dy10Si17,mp-569825,Dy10Si17,"['Dy', 'Si']",27.0,-156.41457175,0.005346554108796475,0.0,
26515,Dy22In12Si8,mp-1205037,Dy11(In3Si2)2,"['Dy', 'In', 'Si']",42.0,-202.86249596,0.0,0.0,
1886,C18Dy11Mn12,mp-1213205,Dy11(Mn2C3)6,"['Dy', 'Mn', 'C']",41.0,-340.67303263,9.160244092853986e-05,0.0,
20246,Cd90Dy22,mp-1205189,Dy11Cd45,"['Dy', 'Cd']",112.0,-210.1697976,0.00010313691985452955,0.0,
17268,Dy22Sn20,mp-30624,Dy11Sn10,"['Dy', 'Sn']",42.0,-212.39167584,-8.881784197001252e-15,-8.881784197001252e-15,
4275,C15Dy12Mn5,mp-543017,Dy12(MnC3)5,"['Dy', 'Mn', 'C']",32.0,-250.84019401,0.00011589305907833136,0.0,
18327,C15Dy12Os5,mp-1213247,Dy12(OsC3)5,"['Dy', 'Os', 'C']",32.0,-261.01073482,0.0,0.0,
17684,Bi1Co5Dy12,mp-1213103,Dy12Co5Bi,"['Dy', 'Co', 'Bi']",18.0,-99.71300521,0.0022837240917965573,0.0,
29490,Co5Dy12Sn1,mp-1105331,Dy12Co5Sn,"['Dy', 'Co', 'Sn']",18.0,-99.83911633,0.0052996081857639155,0.0,
25214,Co14Dy24,mp-573622,Dy12Co7,"['Dy', 'Co']",38.0,-216.79768148,0.009101491503821002,-8.881784197001252e-16,
31369,Dy12Ni6Pb1,mp-1213460,Dy12Ni6Pb,"['Dy', 'Ni', 'Pb']",19.0,-100.82076665,0.0009169221782485693,0.0,
25990,Dy26Zn116,mp-1197303,Dy13Zn58,"['Dy', 'Zn']",142.0,-312.27255323,0.0,0.0,
21398,Ag51Dy14,mp-1225847,Dy14Ag51,"['Dy', 'Ag']",65.0,-224.78469114,0.00014331088701924344,0.0,
15087,Au51Dy14,mp-1225861,Dy14Au51,"['Dy', 'Au']",65.0,-272.38731461,0.0038300616265019016,0.0,
9255,Al18Dy4Ir6,mp-1213073,Dy2(Al3Ir)3,"['Dy', 'Al', 'Ir']",28.0,-163.12810685,0.0,0.0,
30921,Al18Dy4Rh6,mp-1213083,Dy2(Al3Rh)3,"['Dy', 'Al', 'Rh']",28.0,-153.30872611,0.0,0.0,
449,B6Dy2Rh9,mp-1225361,Dy2(B2Rh3)3,"['Dy', 'B', 'Rh']",17.0,-126.37626516,0.0,0.0,
24259,Co6Dy4Ga18,mp-1193482,Dy2(Ga3Co)3,"['Dy', 'Ga', 'Co']",28.0,-129.2374078,0.0,0.0,
3348,Dy4Ga18Ir6,mp-1213136,Dy2(Ga3Ir)3,"['Dy', 'Ga', 'Ir']",28.0,-144.78321137,0.0004721830398999316,0.0,
31720,Dy4Ga18Rh6,mp-1213121,Dy2(Ga3Rh)3,"['Dy', 'Ga', 'Rh']",28.0,-136.99089094,0.0006806353738850746,0.0,
747,Dy4Ga18Ru6,mp-22627,Dy2(Ga3Ru)3,"['Dy', 'Ga', 'Ru']",28.0,-143.70390683,-8.881784197001252e-15,4.440892098500626e-15,
5090,Dy6Ga15Ni15,mp-1226188,Dy2(GaNi)5,"['Dy', 'Ga', 'Ni']",36.0,-180.15027236,0.0,0.0,
6927,Dy4Ge6Pt18,mp-641314,Dy2(GePt3)3,"['Dy', 'Ge', 'Pt']",28.0,-177.20430789,0.014213287750323822,5.329070518200751e-15,
20625,Dy4Mo6O24,mp-1213120,Dy2(MoO4)3,"['Dy', 'Mo', 'O']",34.0,-256.92017026,0.00020936936351034774,0.0,
26648,B40Dy16Ni80,mp-1204635,Dy2(Ni2B)5,"['Dy', 'Ni', 'B']",136.0,-866.68740913,-1.1546319456101628e-14,-1.1546319456101628e-14,
3319,Dy8O48S12,mp-1213482,Dy2(SO4)3,"['Dy', 'S', 'O']",68.0,-472.0778088,0.0,0.0,
6730,Dy8O48Se12,mp-769232,Dy2(SeO4)3,"['Dy', 'Se', 'O']",68.0,-425.12218416,0.00015335147863027032,0.0,
25401,Dy16O72Te24,mp-558224,Dy2(TeO3)3,"['Dy', 'Te', 'O']",112.0,-733.04709835,2.4868995751603507e-14,0.0,
22581,Dy20In40Rh19,mp-1226356,Dy20In40Rh19,"['Dy', 'In', 'Rh']",79.0,-389.25401136,0.0,0.0,
30763,Ag1Dy2Ru1,mp-865161,Dy2AgRu,"['Dy', 'Ag', 'Ru']",4.0,-22.76331815,0.03143363973592184,0.0,
2696,Al4Dy8,mp-1102728,Dy2Al,"['Dy', 'Al']",12.0,-55.28014378,0.0011234248274742953,0.0,
17478,Al3Dy2Si2,mp-3513,Dy2Al3Si2,"['Dy', 'Al', 'Si']",7.0,-35.143811,0.00010313699776798302,0.0,
14010,Al6Au1Dy2Si4,mp-11631,Dy2Al6Si4Au,"['Dy', 'Al', 'Si', 'Au']",13.0,-61.71100914,0.0,0.0,
13937,Al6Dy2Pt1Si4,mp-11630,Dy2Al6Si4Pt,"['Dy', 'Al', 'Si', 'Pt']",13.0,-66.19470253,0.003571114166165401,0.0,
9378,Al1Co2Dy2,mp-13431,Dy2AlCo2,"['Dy', 'Al', 'Co']",5.0,-29.14755001,0.00018474592480455243,0.0,
6027,As7Dy2Rh12,mp-1225463,Dy2As7Rh12,"['Dy', 'As', 'Rh']",21.0,-144.70125419,0.0012255026711320838,-8.881784197001252e-16,
10116,Au4Dy8,mp-1103411,Dy2Au,"['Dy', 'Au']",12.0,-57.54442069,0.00045597796142526903,0.0,
22436,Au10Dy4F42,mp-1213210,Dy2Au5F21,"['Dy', 'Au', 'F']",56.0,-237.17033826,0.0,0.0,
23913,B4C1Dy2,mp-568541,Dy2B4C,"['Dy', 'B', 'C']",7.0,-49.11724619,0.00013548429687482155,-1.2434497875801753e-14,
29605,B24Dy8Os4,mp-1198294,Dy2B6Os,"['Dy', 'B', 'Os']",36.0,-265.60898209,0.00015841579427089414,0.0,
12085,B24Dy8Ru4,mp-1198707,Dy2B6Ru,"['Dy', 'B', 'Ru']",36.0,-258.4670117,0.00011610295138897442,0.0,
6296,Be4Dy4O14Si2,mp-1213057,Dy2Be2SiO7,"['Dy', 'Be', 'Si', 'O']",24.0,-189.95081662,0.0001468874560544009,0.0,
16817,Bi1Dy2O2,mp-1069561,Dy2BiO2,"['Dy', 'Bi', 'O']",5.0,-36.49103575,0.0,0.0,
12439,C1Dy2,mp-12574,Dy2C,"['Dy', 'C']",3.0,-19.27450845,0.0004549114013672195,0.0,
28639,C1Dy2N2O2,mp-13038,Dy2C(NO)2,"['Dy', 'C', 'N', 'O']",7.0,-60.36685443,1.0620281807760534e-05,0.0,
8844,C8Dy16I24,mp-1225760,Dy2CI3,"['Dy', 'C', 'I']",48.0,-239.92107324,0.0003245951790313839,0.0,
5293,C2Dy4O10,mp-1225362,Dy2CO5,"['Dy', 'C', 'O']",16.0,-131.70110844,0.0021341679345763254,0.0,
4056,Cd2Cu4Dy4,mp-1206555,Dy2CdCu2,"['Dy', 'Cd', 'Cu']",10.0,-39.64966474,0.006517901000000492,0.0,
31065,Cd2Dy4Ge4,mp-1079838,Dy2CdGe2,"['Dy', 'Cd', 'Ge']",10.0,-45.95758365,0.0,0.0,
29458,Cd1Dy2In1,mp-864973,Dy2CdIn,"['Dy', 'Cd', 'In']",4.0,-14.50968321,0.0,0.0,
22374,Cd2Dy4Pd4,mp-12977,Dy2CdPd2,"['Dy', 'Cd', 'Pd']",10.0,-49.07203214,8.881784197001252e-15,0.0,
13085,Cd2Dy4S8,mp-16267,Dy2CdS4,"['Dy', 'Cd', 'S']",14.0,-76.6469769,0.005496364221539096,0.0,
15718,Cd2Dy4Se8,mp-570959,Dy2CdSe4,"['Dy', 'Cd', 'Se']",14.0,-69.35477995,0.01470043203822513,0.0,
4893,Co12Dy2P7,mp-1191588,Dy2Co12P7,"['Dy', 'Co', 'P']",21.0,-149.26784687,0.0028034482884580214,0.0,
9412,Co17Dy2,mp-1106070,Dy2Co17,"['Dy', 'Co']",19.0,-131.92440983,0.000199871971628518,0.0,
24096,Co4Dy4I2,mp-1206614,Dy2Co2I,"['Dy', 'Co', 'I']",10.0,-55.90098565,0.0,0.0,
26486,Co6Dy4Si10,mp-15898,Dy2Co3Si5,"['Dy', 'Co', 'Si']",20.0,-130.837152,0.00031201669921898656,0.0,
30310,C3Cr2Dy2,mp-1025323,Dy2Cr2C3,"['Dy', 'Cr', 'C']",7.0,-58.33929844,0.0,0.0,
30084,Cr2Dy4Fe2O12,mp-1232352,Dy2CrFeO6,"['Dy', 'Cr', 'Fe', 'O']",20.0,-158.21226343,0.00012966907620182155,0.0,
17457,Cr2Dy4O14Sb2,mp-1225509,Dy2CrSbO7,"['Dy', 'Cr', 'Sb', 'O']",22.0,-168.76724986,3.0751436435494384e-05,-1.4210854715202004e-14,
30243,Cu1Dy2Ru1,mp-865220,Dy2CuRu,"['Dy', 'Cu', 'Ru']",4.0,-23.94374969,0.002614586858125989,0.0,
9984,Dy2Fe12P7,mp-1190791,Dy2Fe12P7,"['Dy', 'Fe', 'P']",21.0,-163.59512739,0.0016775449981407675,0.0,
22772,B4Dy8Fe56,mp-4023,Dy2Fe14B,"['Dy', 'Fe', 'B']",68.0,-545.3001212,0.00011651814108404324,0.0,
18888,C4Dy8Fe56,mp-571165,Dy2Fe14C,"['Dy', 'Fe', 'C']",68.0,-552.87711508,4.070194852978659e-05,0.0,
15580,C1Dy2Fe2Si2,mp-11705,Dy2Fe2Si2C,"['Dy', 'Fe', 'Si', 'C']",7.0,-51.07206702,4.877968331573612e-05,0.0,
11970,Dy8Fe12Si20,mp-669393,Dy2Fe3Si5,"['Dy', 'Fe', 'Si']",40.0,-274.79123692,0.00017418564258431246,6.217248937900877e-15,
25424,C8Dy4Fe2,mp-1104250,Dy2FeC4,"['Dy', 'Fe', 'C']",14.0,-113.26247963,0.00038652144112560904,0.0,
6159,Co3Dy2Fe1,mp-1225366,Dy2FeCo3,"['Dy', 'Fe', 'Co']",6.0,-40.17433836,6.309824380412721e-05,0.0,
14503,Cu1Dy2Ga3,mp-1225325,Dy2Ga3Cu,"['Dy', 'Ga', 'Cu']",6.0,-25.98301956,0.0,0.0,
14990,Co2Dy2Ga1,mp-1206476,Dy2GaCo2,"['Dy', 'Ga', 'Co']",5.0,-28.51649795,0.0,0.0,
21557,Dy2Ga1Ni2,mp-1206933,Dy2GaNi2,"['Dy', 'Ga', 'Ni']",5.0,-26.67716934,0.0007008518486326665,0.0,
18954,Dy4Ge4Ru2,mp-1205905,Dy2Ge2Ru,"['Dy', 'Ge', 'Ru']",10.0,-63.45331693,0.0,0.0,
31140,Dy4Ge10Rh6,mp-866028,Dy2Ge5Rh3,"['Dy', 'Ge', 'Rh']",20.0,-124.50420537,0.0,0.0,
14418,Dy4Ge10Ru6,mp-1105812,Dy2Ge5Ru3,"['Dy', 'Ge', 'Ru']",20.0,-133.06348292,0.0,0.0,
12661,Dy8Ge24Pd4,mp-1202284,Dy2Ge6Pd,"['Dy', 'Ge', 'Pd']",36.0,-189.2274634,0.0,0.0,
7718,Dy4Hf4Mo14O56,mp-555720,Dy2Hf2(MoO4)7,"['Dy', 'Hf', 'Mo', 'O']",78.0,-605.82975828,1.8029112579753814e-05,0.0,
11542,Dy4In2,mp-21351,Dy2In,"['Dy', 'In']",6.0,-26.01787359,0.004672715265299665,0.0,
13088,Ag1Dy2In1,mp-1184170,Dy2InAg,"['Dy', 'In', 'Ag']",4.0,-16.38832696,0.005833934712726752,0.0,
13235,Au4Dy4In2,mp-21866,Dy2InAu2,"['Dy', 'In', 'Au']",10.0,-45.19028603,1.779897753806381e-05,0.0,
4293,Dy2In1Ni2,mp-1068319,Dy2InNi2,"['Dy', 'In', 'Ni']",5.0,-26.17625957,0.003412713075195306,0.0,
29550,Dy4In2Pd4,mp-20870,Dy2InPd2,"['Dy', 'In', 'Pd']",10.0,-53.39964685,9.769962616701378e-15,0.0,
1601,Dy2Ir1Pd1,mp-865221,Dy2IrPd,"['Dy', 'Ir', 'Pd']",4.0,-26.88720245,0.0,0.0,
13722,Dy2Ir1Rh1,mp-864999,Dy2IrRh,"['Dy', 'Ir', 'Rh']",4.0,-28.9296444,0.0,0.0,
24771,Cu4Dy4Mg2,mp-1205987,Dy2MgCu2,"['Dy', 'Mg', 'Cu']",10.0,-40.38151109,0.0,0.0,
26303,Dy2In1Mg1,mp-865007,Dy2MgIn,"['Dy', 'Mg', 'In']",4.0,-14.82007916,0.0,0.0,
14347,Dy4Mg2Ni4,mp-1206447,Dy2MgNi2,"['Dy', 'Mg', 'Ni']",10.0,-48.57092032,0.0,0.0,
5932,Dy4Mg2Pd4,mp-1206818,Dy2MgPd2,"['Dy', 'Mg', 'Pd']",10.0,-50.15326603,0.007571052162921532,0.0,
28872,Dy4Ge8Mn2O24,mp-1225644,Dy2Mn(GeO3)4,"['Dy', 'Mn', 'Ge', 'O']",38.0,-273.94884382,0.0,0.0,
25720,Dy2Mn12P7,mp-1190617,Dy2Mn12P7,"['Dy', 'Mn', 'P']",21.0,-171.96514417,0.00044927082961265796,0.0,
4800,Dy4Mn4O14,mp-755869,Dy2Mn2O7,"['Dy', 'Mn', 'O']",22.0,-171.75817501,0.0,0.0,
1249,Dy8Mn12Si20,mp-505334,Dy2Mn3Si5,"['Dy', 'Mn', 'Si']",40.0,-280.40248414,0.00011975074805281594,6.217248937900877e-15,
5378,Dy4Mn2Ni2O12,mp-1104659,Dy2MnNiO6,"['Dy', 'Mn', 'Ni', 'O']",20.0,-148.17178765,0.0005026951367188559,0.0,
1427,C3Dy2Mo2,mp-1025363,Dy2Mo2C3,"['Dy', 'Mo', 'C']",7.0,-61.04263162,0.0003969337500002723,0.0,
7438,Dy4H4Mo6O34Se4,mp-1203751,Dy2Mo3H2Se2O17,"['Dy', 'Mo', 'H', 'Se', 'O']",52.0,-349.0235793,0.006919879031596743,0.0,
1762,Dy4Mo8O30,mp-1213187,Dy2Mo4O15,"['Dy', 'Mo', 'O']",42.0,-313.33236105,1.4259784228087824e-05,0.0,
5069,Dy8Mo4O24,mp-17822,Dy2MoO6,"['Dy', 'Mo', 'O']",36.0,-284.5363091,1.1779286024804492e-05,0.0,
12575,As7Dy2Ni12,mp-1191758,Dy2Ni12As7,"['Dy', 'Ni', 'As']",21.0,-122.46949416,0.0004099751283481723,1.0658141036401503e-14,
4247,Dy2Ni12P7,mp-864836,Dy2Ni12P7,"['Dy', 'Ni', 'P']",21.0,-132.6888067,0.0011606591424859758,0.0,
28535,Dy4Ni4Sn2,mp-1079840,Dy2Ni2Sn,"['Dy', 'Ni', 'Sn']",10.0,-55.50678216,0.0006885900302737724,0.0,
9608,Dy4Ni14,mp-865205,Dy2Ni7,"['Dy', 'Ni']",18.0,-106.50997431,0.00015074295030359508,0.0,
24317,Dy8Ni28Sn12,mp-568709,Dy2Ni7Sn3,"['Dy', 'Ni', 'Sn']",48.0,-267.24870621,0.006448559704285373,0.0,
2516,B20Dy4Ni2,mp-1213050,Dy2NiB10,"['Dy', 'Ni', 'B']",26.0,-176.84605636,0.0007693072926677758,0.0,
3730,Dy2Ni1Sb4,mp-1225313,Dy2NiSb4,"['Dy', 'Ni', 'Sb']",7.0,-36.63519182,0.00036712839285701904,0.0,
30193,Dy16O24,mp-2345,Dy2O3,"['Dy', 'O']",40.0,-336.35890376,0.0,0.0,
2459,C8Dy8Os4,mp-1213167,Dy2OsC2,"['Dy', 'Os', 'C']",20.0,-163.26467753,0.0,0.0,
5695,Dy2P7Rh12,mp-1225373,Dy2P7Rh12,"['Dy', 'P', 'Rh']",21.0,-154.86623054,0.010409920342258516,0.0,
988,Dy4O14Pb4,mp-769222,Dy2Pb2O7,"['Dy', 'Pb', 'O']",22.0,-149.05147819,0.0,0.0,
13301,Dy4Pb2Pd4,mp-31088,Dy2Pd2Pb,"['Dy', 'Pd', 'Pb']",10.0,-54.99510527,0.00030827487988283053,0.0,
8591,Dy4Pd2Pt2,mp-1225328,Dy2PdPt,"['Dy', 'Pd', 'Pt']",8.0,-49.85270955,0.0004889048217773251,0.0,
5576,Dy2Pd1Ru1,mp-865216,Dy2PdRu,"['Dy', 'Pd', 'Ru']",4.0,-26.27224087,0.0017228740450985214,0.0,
27854,Dy8Pt4,mp-1103421,Dy2Pt,"['Dy', 'Pt']",12.0,-72.41249349,0.0,0.0,
13729,Dy4O14Pt4,mp-1178365,Dy2Pt2O7,"['Dy', 'Pt', 'O']",22.0,-156.49715459,2.2394282668258825e-06,0.0,
19790,C1Dy2Re2Si2,mp-1025240,Dy2Re2Si2C,"['Dy', 'Re', 'Si', 'C']",7.0,-58.53233531,0.001170534676340651,0.0,
30415,Dy8Re12Si20,mp-1196838,Dy2Re3Si5,"['Dy', 'Re', 'Si']",40.0,-318.45327861,3.552713678800501e-15,0.0,
24685,B24Dy8Re4,mp-1204645,Dy2ReB6,"['Dy', 'Re', 'B']",36.0,-269.50651604,0.0002504835351562207,0.0,
14798,C8Dy8Re4,mp-1188135,Dy2ReC2,"['Dy', 'Re', 'C']",20.0,-168.86311503,3.425094140752094e-05,0.0,
15962,Dy2Rh1Ru1,mp-865222,Dy2RuRh,"['Dy', 'Ru', 'Rh']",4.0,-28.34533107,0.0,0.0,
27170,Dy8S12,mp-1270,Dy2S3,"['Dy', 'S']",20.0,-127.85816272,0.014680596910156218,0.0,
26770,Dy2O2S1,mp-12669,Dy2SO2,"['Dy', 'S', 'O']",5.0,-39.31489093,0.0,-1.7763568394002505e-15,
12633,Dy8Sb20,mp-13451,Dy2Sb5,"['Dy', 'Sb']",28.0,-137.28147908,0.000333375665457325,0.0,
16415,Dy2O2Sb1,mp-1178366,Dy2SbO2,"['Dy', 'Sb', 'O']",5.0,-36.87148091,0.0,0.0,
10466,Dy8Sc12Si16,mp-1213190,Dy2Sc3Si4,"['Dy', 'Sc', 'Si']",36.0,-229.64822677,0.00033938361328100797,0.0,
17674,Dy8Se12,mp-7368,Dy2Se3,"['Dy', 'Se']",20.0,-116.00052728,0.023886139051757738,0.0,
8992,Dy2O2Se1,mp-769284,Dy2SeO2,"['Dy', 'Se', 'O']",5.0,-38.22871453,0.0001274370175803341,0.0,
6549,Dy12F12O6Se6,mp-1194579,Dy2SeOF2,"['Dy', 'Se', 'O', 'F']",36.0,-251.07612142,0.0036603889969129,0.0,
31099,Dy8Pd4Si12,mp-1213111,Dy2Si3Pd,"['Dy', 'Si', 'Pd']",24.0,-144.03115608,0.011774161746419765,0.0,
3658,Dy8Rh4Si12,mp-1191528,Dy2Si3Rh,"['Dy', 'Si', 'Rh']",24.0,-153.86245992,0.00010988024576885635,0.0,
21382,Dy4Mo6Si8,mp-1189145,Dy2Si4Mo3,"['Dy', 'Si', 'Mo']",18.0,-139.02722991,0.0003084891579874238,0.0,
26385,Dy4Rh6Si10,mp-1188825,Dy2Si5Rh3,"['Dy', 'Si', 'Rh']",20.0,-136.32857673,0.00022765764062526728,0.0,
11368,B36C1Dy2Si9,mp-1225372,Dy2Si9B36C,"['Dy', 'Si', 'B', 'C']",48.0,-317.65799041,7.69108105460603e-05,0.0,
18855,Dy8O20Si4,mp-768317,Dy2SiO5,"['Dy', 'Si', 'O']",32.0,-265.93512935,7.105427357601002e-15,0.0,
31078,Dy4O14Sn4,mp-20845,Dy2Sn2O7,"['Dy', 'Sn', 'O']",22.0,-160.76557182,0.0,0.0,
8280,Dy4Rh6Sn10,mp-1106269,Dy2Sn5Rh3,"['Dy', 'Sn', 'Rh']",20.0,-116.7121899,0.006117189570312931,0.0,
13634,Dy24Te12,mp-505682,Dy2Te,"['Dy', 'Te']",36.0,-179.7085816,0.00013440122070296212,0.0,
26184,Dy8Te12,mp-1188427,Dy2Te3,"['Dy', 'Te']",20.0,-102.74209048,0.0015144762441412496,0.0,
4638,Dy4O26Te10,mp-555940,Dy2Te5O13,"['Dy', 'Te', 'O']",40.0,-248.51889218,8.310321484472638e-05,0.0,
26955,Dy2O2Te1,mp-16037,Dy2TeO2,"['Dy', 'Te', 'O']",5.0,-37.119493,0.0009529136718748887,0.0,
31562,Dy8O24Te4,mp-768313,Dy2TeO6,"['Dy', 'Te', 'O']",36.0,-260.63151188,0.0012214107226569126,0.0,
13515,Dy2S2Te1,mp-1225289,Dy2TeS2,"['Dy', 'Te', 'S']",5.0,-29.91834875,0.0009290720214805148,0.0,
25506,Dy8O28Ti8,mp-752425,Dy2Ti2O7,"['Dy', 'Ti', 'O']",44.0,-386.11835063,0.00044988358671282924,6.572520305780927e-14,
9189,Dy8Si16Ti12,mp-19950,Dy2Ti3Si4,"['Dy', 'Ti', 'Si']",36.0,-247.50867919,0.000821048568792726,0.0,
14565,Dy8O20Ti4,mp-770816,Dy2TiO5,"['Dy', 'Ti', 'O']",32.0,-278.06576738,0.00025044869630441724,1.5987211554602254e-14,
12476,Ag1Dy2Tl1,mp-866008,Dy2TlAg,"['Dy', 'Tl', 'Ag']",4.0,-15.78081525,0.0001930876770019907,0.0,
30428,Cd1Dy2Tl1,mp-866005,Dy2TlCd,"['Dy', 'Tl', 'Cd']",4.0,-13.86093259,0.0,0.0,
8014,Dy2Hg1Tl1,mp-1184105,Dy2TlHg,"['Dy', 'Tl', 'Hg']",4.0,-13.52681901,0.0014633488107298476,0.0,
20862,Dy2In1Tl1,mp-1184139,Dy2TlIn,"['Dy', 'Tl', 'In']",4.0,-15.9114994,0.00334968689575188,0.0,
16538,Dy8O24W4,mp-770559,Dy2WO6,"['Dy', 'W', 'O']",36.0,-292.50250149,0.0005143154361970659,0.0,
9833,Dy2Zn17,mp-30964,Dy2Zn17,"['Dy', 'Zn']",19.0,-35.2677752,0.0,0.0,
30794,Dy2In1Zn1,mp-865157,Dy2ZnIn,"['Dy', 'Zn', 'In']",4.0,-14.82884164,0.01116320653645797,0.0,
22136,Dy2Ru1Zn1,mp-865017,Dy2ZnRu,"['Dy', 'Zn', 'Ru']",4.0,-21.22542662,0.022469176413268954,0.0,
23409,Dy8S20Zr4,mp-1199023,Dy2ZrS5,"['Dy', 'Zr', 'S']",32.0,-213.54689737,0.0017365808294673712,2.6645352591003757e-15,
10949,Al24Dy6Os8,mp-1213200,Dy3(Al3Os)4,"['Dy', 'Al', 'Os']",38.0,-229.81127773,4.822688324512825e-05,-1.7763568394002505e-15,
28233,Al24Dy6Ru8,mp-1195540,Dy3(Al3Ru)4,"['Dy', 'Al', 'Ru']",38.0,-216.99229084,0.0003446187510274257,0.0,
29056,Al4Dy6Ni12,mp-16807,Dy3(AlNi3)2,"['Dy', 'Al', 'Ni']",22.0,-124.43882548,0.00012771144708789706,0.0,
22858,Cu4Dy3Si4,mp-12732,Dy3(CuSi)4,"['Dy', 'Cu', 'Si']",11.0,-58.92404847,0.0024965923934656686,0.0,
14915,Cu4Dy3Sn4,mp-20844,Dy3(CuSn)4,"['Dy', 'Cu', 'Sn']",11.0,-51.85118301,0.0,0.0,
14622,Dy6Ga4Ni12,mp-1191661,Dy3(GaNi3)2,"['Dy', 'Ga', 'Ni']",22.0,-121.31416524,0.0009313873508531856,0.0,
2000,Dy12Ge8Rh8,mp-1213229,Dy3(GeRh)2,"['Dy', 'Ge', 'Rh']",28.0,-177.07988697,-5.329070518200751e-15,0.0,
25083,Co2Dy3In4,mp-1207275,Dy3(In2Co)2,"['Dy', 'In', 'Co']",9.0,-42.37143074,0.00258173959280672,0.0,
15293,Dy3P6Pd20,mp-1213204,Dy3(P3Pd10)2,"['Dy', 'P', 'Pd']",29.0,-171.09430377,0.0,0.0,
1424,Dy3Pd20Si6,mp-1213199,Dy3(Si3Pd10)2,"['Dy', 'Si', 'Pd']",29.0,-174.11764716,0.0,2.6645352591003757e-15,
13754,Dy6Ni12Si4,mp-1191905,Dy3(SiNi3)2,"['Dy', 'Si', 'Ni']",22.0,-133.19645326,6.95240039068068e-05,0.0,
6741,Al20Dy12O48,mp-772195,Dy3Al5O12,"['Dy', 'Al', 'O']",80.0,-630.63518442,0.0,0.0,
16907,Al1C1Dy3,mp-29676,Dy3AlC,"['Dy', 'Al', 'C']",5.0,-28.70610966,2.1430426757618193e-05,0.0,
14528,Al1Dy3N1,mp-1017557,Dy3AlN,"['Dy', 'Al', 'N']",5.0,-30.49150781,3.2190441405788306e-05,0.0,
17809,Al2Dy6Ni16,mp-1192283,Dy3AlNi8,"['Dy', 'Al', 'Ni']",24.0,-139.62595354,0.0,-1.0658141036401503e-14,
28791,B14Dy6Mo2,mp-1213062,Dy3B7Mo,"['Dy', 'B', 'Mo']",22.0,-155.78058095,0.0002419536665483335,2.4868995751603507e-14,
7822,B14Dy6W2,mp-1191614,Dy3B7W,"['Dy', 'B', 'W']",22.0,-159.96295611,0.0003888968554690564,0.0,
5432,C40Dy30,mp-1213387,Dy3C4,"['Dy', 'C']",70.0,-529.50934974,0.0,0.0,
4031,Co4Dy12,mp-646392,Dy3Co,"['Dy', 'Co']",16.0,-86.23381648,0.0010491401354979502,0.0,
8772,B20Co58Dy6Si8,mp-758934,Dy3Co29(Si2B5)2,"['Dy', 'Co', 'Si', 'B']",92.0,-655.77680979,0.006397983982688871,0.0,
10624,Cr4Dy12S24,mp-1212952,Dy3CrS6,"['Dy', 'Cr', 'S']",40.0,-262.3465661,0.0060222061425836415,0.0,
1590,Cu6Dy6Sb8,mp-1189135,Dy3Cu3Sb4,"['Dy', 'Cu', 'Sb']",20.0,-99.68403093,6.870496483468713e-05,-8.881784197001252e-15,
13537,Cu2Dy6Ge2S14,mp-558740,Dy3CuGeS7,"['Dy', 'Cu', 'Ge', 'S']",24.0,-137.34979201,2.6645352591003757e-15,0.0,
16909,Cu2Dy6S14Si2,mp-557998,Dy3CuSiS7,"['Dy', 'Cu', 'Si', 'S']",24.0,-141.09393429,0.0,0.0,
30264,Cu2Dy6Se14Si2,mp-569557,Dy3CuSiSe7,"['Dy', 'Cu', 'Si', 'Se']",24.0,-126.99913531,0.0025267297101549957,0.0,
10642,B14Dy6Fe2,mp-1192098,Dy3FeB7,"['Dy', 'Fe', 'B']",22.0,-151.15572947,0.0,0.0,
3862,Dy12Ga60Ru16,mp-1213672,Dy3Ga15Ru4,"['Dy', 'Ga', 'Ru']",88.0,-431.01225841,0.0045791336132809946,0.0,
17936,Dy24Ga16,mp-1205197,Dy3Ga2,"['Dy', 'Ga']",40.0,-180.50582527,0.0,0.0,
8532,Dy12Ga20,mp-1196980,Dy3Ga5,"['Dy', 'Ga']",32.0,-136.80143418,0.0,0.0,
16130,Dy12Ga20O48,mp-15576,Dy3Ga5O12,"['Dy', 'Ga', 'O']",80.0,-558.38672803,6.184689062571636e-05,0.0,
11779,Ag3Dy3Ga8,mp-1105006,Dy3Ga8Ag3,"['Dy', 'Ga', 'Ag']",14.0,-52.88693924,0.0036202021651785543,0.0,
10935,Dy6Ga2S12,mp-1189242,Dy3GaS6,"['Dy', 'Ga', 'S']",20.0,-117.96509622,0.0002606644638669664,0.0,
4954,Dy6Ge26Os8,mp-1204800,Dy3Ge13Os4,"['Dy', 'Ge', 'Os']",40.0,-251.17065232,0.0,0.0,
18645,Dy6Ge26Rh8,mp-1204450,Dy3Ge13Rh4,"['Dy', 'Ge', 'Rh']",40.0,-228.42513793,0.0,0.0,
14253,Dy6Ge6Ru4,mp-1189819,Dy3Ge3Ru2,"['Dy', 'Ge', 'Ru']",16.0,-104.86136546,0.0,0.0,
26052,Dy6In10,mp-1212972,Dy3In5,"['Dy', 'In']",16.0,-62.3723109,0.0,-3.552713678800501e-15,
5030,C1Dy3In1,mp-19881,Dy3InC,"['Dy', 'In', 'C']",5.0,-28.27014544,2.9749890622987607e-05,0.0,
12554,Dy3In1N1,mp-31056,Dy3InN,"['Dy', 'In', 'N']",5.0,-29.89209471,0.0009645388349612816,0.0,
21763,Dy12Ir4,mp-1105615,Dy3Ir,"['Dy', 'Ir']",16.0,-99.96858457,0.0,0.0,
18749,B14Dy6Mn2,mp-14356,Dy3MnB7,"['Dy', 'Mn', 'B']",22.0,-152.78308063,0.001285919073153785,0.0,
18412,Dy6Ni4,mp-7281,Dy3Ni2,"['Dy', 'Ni']",10.0,-54.41920138,0.005801057220947925,0.0,
9353,B4Dy6Ni14,mp-18399,Dy3Ni7B2,"['Dy', 'Ni', 'B']",24.0,-147.49518823,0.0,0.0,
9542,Dy12Ge8Ni4,mp-1213457,Dy3NiGe2,"['Dy', 'Ni', 'Ge']",24.0,-134.34749046,0.0,0.0,
17468,Dy6Ni2Pd4,mp-1225399,Dy3NiPd2,"['Dy', 'Ni', 'Pd']",12.0,-68.97221801,0.017602406179605623,0.0,
10619,Dy12Os4,mp-1189887,Dy3Os,"['Dy', 'Os']",16.0,-104.29847173,0.00010667486450177677,0.0,
28819,C1Dy3Pb1,mp-19818,Dy3PbC,"['Dy', 'Pb', 'C']",5.0,-29.4553229,4.641243164016373e-05,-8.881784197001252e-16,
682,Dy6Pd4,mp-12543,Dy3Pd2,"['Dy', 'Pd']",10.0,-55.69058006,0.01595881681494049,0.0,
17145,Dy6Pd8,mp-1104399,Dy3Pd4,"['Dy', 'Pd']",14.0,-82.23690559,0.0006045262513945104,0.0,
15387,Dy12Pt4,mp-1105479,Dy3Pt,"['Dy', 'Pt']",16.0,-90.88789006,0.0,0.0,
17773,Dy6Pt8,mp-1104664,Dy3Pt4,"['Dy', 'Pt']",14.0,-93.39152584,0.0011269978656880397,0.0,