,Composition,MaterialId,Reduced Formula,Elements,NSites,Corrected Energy,Decomposition Energy Per Atom All,Decomposition Energy Per Atom MP,Directory
16371,Ba4Ca4F28Ga4,mp-8416,BaCaGaF7,"['Ba', 'Ca', 'Ga', 'F']",40.0,-217.86186246,2.3978505856447896e-06,0.0,
7449,Ba4Ca4H8O32P8,mp-733968,BaCaP2(HO4)2,"['Ba', 'Ca', 'P', 'H', 'O']",56.0,-379.64443602,0.001004032950613798,0.0,
20848,Ba4Ca4Pb4,mp-1102214,BaCaPb,"['Ba', 'Ca', 'Pb']",12.0,-37.64177828,9.272084798128688e-05,-8.881784197001252e-16,
10742,Ba4Ca4Si4,mp-16253,BaCaSi,"['Ba', 'Ca', 'Si']",12.0,-42.40805911,1.5782886555459896e-05,0.0,
26491,Ba4Ca4Sn4,mp-11265,BaCaSn,"['Ba', 'Ca', 'Sn']",12.0,-39.84998952,0.00018353375406876538,0.0,
18148,Ba1Cd1,mp-527,BaCd,"['Ba', 'Cd']",2.0,-3.49740878,0.0,0.0,
15136,Ba4Cd4O48P16,mp-540736,BaCd(PO3)4,"['Ba', 'Cd', 'P', 'O']",72.0,-498.33516214,0.00013726085937459942,0.0,
26570,Ba2Cd22,mp-31216,BaCd11,"['Ba', 'Cd']",24.0,-27.98412711,0.0,0.0,
5618,Ba2Cd4,mp-11266,BaCd2,"['Ba', 'Cd']",6.0,-9.53554956,0.0022499695735662684,0.0,
9357,Ba2Cd4Pt2,mp-1078435,BaCd2Pt,"['Ba', 'Cd', 'Pt']",8.0,-23.76078512,0.0,0.0,
22154,As4Ba2Cd2O14,mp-1190335,BaCdAs2O7,"['Ba', 'Cd', 'As', 'O']",22.0,-130.32772655,4.568260830950521e-05,0.0,
7242,As2Ba2Cd2F2,mp-1095151,BaCdAsF,"['Ba', 'Cd', 'As', 'F']",8.0,-33.58908179,0.0002654491625975197,0.0,
16272,Ba2Bi4Cd2,mp-30426,BaCdBi2,"['Ba', 'Cd', 'Bi']",8.0,-25.4058655,0.001285216506957898,0.0,
29967,Ba4Cd4F28Ga4,mp-621924,BaCdGaF7,"['Ba', 'Cd', 'Ga', 'F']",40.0,-192.55362308,0.0,0.0,
23478,Ba4Cd4O8,mp-7899,BaCdO2,"['Ba', 'Cd', 'O']",16.0,-79.79074195,7.587890671345576e-08,0.0,
22663,Ba2Cd2O14P4,mp-6695,BaCdP2O7,"['Ba', 'Cd', 'P', 'O']",22.0,-148.50776091,9.224786889916459e-08,0.0,
22451,Ba2Cd2Pb2,mp-1228125,BaCdPb,"['Ba', 'Cd', 'Pb']",6.0,-15.82078536,0.024262773251952918,0.0,
20192,Ba2Cd2F2Sb2,mp-1078693,BaCdSbF,"['Ba', 'Cd', 'Sb', 'F']",8.0,-32.10606615,0.0005145278808598164,0.0,
734,Ba2Cd2Sn2,mp-1227971,BaCdSn,"['Ba', 'Cd', 'Sn']",6.0,-16.87175056,0.012706007130534047,0.0,
23158,Ba8Cd8S32Sn8,mp-12306,BaCdSnS4,"['Ba', 'Cd', 'Sn', 'S']",56.0,-243.1328772,5.948307058734059e-05,0.0,
6896,Ba2Ce2I8,mp-569380,BaCeI4,"['Ba', 'Ce', 'I']",12.0,-46.39853022,0.026273118975423948,0.0,
4271,Ba2Ce2N4,mp-4887,BaCeN2,"['Ba', 'Ce', 'N']",8.0,-57.43822824,0.0,0.0,
20258,Ba4Ce4O12,mp-3187,BaCeO3,"['Ba', 'Ce', 'O']",20.0,-154.35196636,0.0,0.0,
9458,Ba1Cl2,mp-568662,BaCl2,"['Ba', 'Cl']",3.0,-13.292764,4.5257548014099314e-05,0.0,
11690,Ba2Cl2F2,mp-23432,BaClF,"['Ba', 'Cl', 'F']",6.0,-30.82249634,2.3289646809310227e-05,-4.440892098500626e-15,
2711,As4Ba2Co4O16,mp-19143,BaCo2(AsO4)2,"['Ba', 'Co', 'As', 'O']",26.0,-163.81424733,2.6645352591003757e-15,2.6645352591003757e-15,
79,Ba2Co4O16P4,mp-1194023,BaCo2(PO4)2,"['Ba', 'Co', 'P', 'O']",26.0,-182.31927548,-7.105427357601002e-15,-1.3322676295501878e-14,
5606,Ba4Co8O28Si8,mp-19203,BaCo2Si2O7,"['Ba', 'Co', 'Si', 'O']",48.0,-342.93233266,-1.4210854715202004e-14,-1.4210854715202004e-14,
30439,Ba20Co20N20,mp-505765,BaCoN,"['Ba', 'Co', 'N']",60.0,-371.85009746,0.00016583579036488771,0.0,
8262,Ba3Co3O6,mp-19086,BaCoO2,"['Ba', 'Co', 'O']",12.0,-72.70831484,0.007073825385742083,0.0,
11617,Ba4Co4O12,mp-18965,BaCoO3,"['Ba', 'Co', 'O']",20.0,-121.74625894,0.0,0.0,
20616,Ba2Co2O14P4,mp-19278,BaCoP2O7,"['Ba', 'Co', 'P', 'O']",22.0,-156.71915018,7.392869673239488e-05,0.0,
12515,Ba4Cr4O40Si16,mp-19518,BaCr(Si2O5)2,"['Ba', 'Cr', 'Si', 'O']",64.0,-498.32110035,0.0,0.0,
19731,Ba1Cr2O14P4,mp-1192170,BaCr2(P2O7)2,"['Ba', 'Cr', 'P', 'O']",21.0,-157.26970952,0.0007862933184537013,0.0,
23229,Ba4Cr8O16,mp-541137,BaCr2O4,"['Ba', 'Cr', 'O']",28.0,-209.96865785,-3.552713678800501e-15,-3.552713678800501e-15,
12396,Ba8Cr16O56,mp-572430,BaCr2O7,"['Ba', 'Cr', 'O']",80.0,-544.86596483,0.0,0.0,
18029,Ba4Cr4F20,mp-541031,BaCrF5,"['Ba', 'Cr', 'F']",28.0,-167.46303811,0.0006996364174165492,6.217248937900877e-15,
914,Ba1Cr1F6,mp-559246,BaCrF6,"['Ba', 'Cr', 'F']",8.0,-44.77359818,0.008576800681152186,0.0,
12937,Ba4Cr4N8,mp-1029770,BaCrN2,"['Ba', 'Cr', 'N']",16.0,-125.86282165,4.782900390232214e-05,0.0,
16421,Ba4Cr4O16,mp-18571,BaCrO4,"['Ba', 'Cr', 'O']",24.0,-165.53950742,0.0,0.0,
3366,Ba2Cr2O14P4,mp-19110,BaCrP2O7,"['Ba', 'Cr', 'P', 'O']",22.0,-164.04076457,-2.842170943040401e-14,0.0,
6333,Ba4Cu4,mp-30428,BaCu,"['Ba', 'Cu']",8.0,-24.66090128,0.0013786291387938299,0.0,
4298,Ba2Cu2O12Se4,mp-9639,BaCu(SeO3)2,"['Ba', 'Cu', 'Se', 'O']",20.0,-111.81619903,0.0,0.0,
20535,Ba3Cu6S12Sn3,mp-17954,BaCu2SnS4,"['Ba', 'Cu', 'Sn', 'S']",24.0,-111.26357116,3.2936387532878086e-05,0.0,
24243,Ba2Cu4Se8Sn2,mp-12364,BaCu2SnSe4,"['Ba', 'Cu', 'Sn', 'Se']",16.0,-68.05497082,0.0,0.0,
30823,Ba2Cu8S6,mp-27424,BaCu4S3,"['Ba', 'Cu', 'S']",16.0,-71.6227541,0.005988888671303094,-1.687538997430238e-14,
17880,Ba2Cu18Si8,mp-11143,BaCu9Si4,"['Ba', 'Cu', 'Si']",28.0,-126.38727297,0.0,0.0,
23084,Ba2Cu18Sn8,mp-1192715,BaCu9Sn4,"['Ba', 'Cu', 'Sn']",28.0,-113.63409483,0.0033745149575370448,0.0,
13280,As2Ba2Cu2,mp-9898,BaCuAs,"['Ba', 'Cu', 'As']",6.0,-25.84959463,0.0015311974292000485,0.0,
16847,As8Ba4Cu4O28,mp-6571,BaCuAs2O7,"['Ba', 'Cu', 'As', 'O']",44.0,-267.4282191,0.004904048941317463,0.0,
8893,Ba6Cu6N6,mp-29199,BaCuN,"['Ba', 'Cu', 'N']",18.0,-92.39455813,0.0,0.0,
20901,Ba2Cu2O4,mp-997034,BaCuO2,"['Ba', 'Cu', 'O']",8.0,-45.01592385,0.00010964692382842145,0.0,
16913,Ba2Cu2P2,mp-16254,BaCuP,"['Ba', 'Cu', 'P']",6.0,-27.23331174,0.0005876078474926771,4.440892098500626e-15,
5183,Ba2Cu2O14P4,mp-8851,BaCuP2O7,"['Ba', 'Cu', 'P', 'O']",22.0,-151.60802867,0.0,0.0,
22444,Ba2Cu2S4,mp-1147715,BaCuS2,"['Ba', 'Cu', 'S']",8.0,-37.6778411,0.00030388578491180596,-8.881784197001252e-15,
20039,Ba2Cu2Sb2,mp-11700,BaCuSb,"['Ba', 'Cu', 'Sb']",6.0,-24.45801371,0.001760901136881543,0.0,
12481,Ba2Cu2F2Se2,mp-9195,BaCuSeF,"['Ba', 'Cu', 'Se', 'F']",8.0,-38.89351927,0.00019468902832020518,0.0,
2163,Ba2Cu2Sn4,mp-5792,BaCuSn2,"['Ba', 'Cu', 'Sn']",8.0,-31.68637911,0.0,0.0,
22887,Ba2Cu2O14Te4,mp-557735,BaCuTe2O7,"['Ba', 'Cu', 'Te', 'O']",22.0,-124.14890676,0.00011374634943184248,0.0,
16607,Ba4Dy8O16,mp-1194284,BaDy2O4,"['Ba', 'Dy', 'O']",28.0,-215.80984308,0.0,0.0,
13964,Ba2Dy4O20Si6,mp-1195063,BaDy2Si3O10,"['Ba', 'Dy', 'Si', 'O']",32.0,-255.41610801,0.0005823638232431705,0.0,
15366,Ba2Cu2Dy2Te6,mp-9503,BaDyCuTe3,"['Ba', 'Dy', 'Cu', 'Te']",12.0,-55.00144644,6.237552408805414e-05,0.0,
10109,Ba1Cu1Dy1Fe1O5,mp-1207068,BaDyFeCuO5,"['Ba', 'Dy', 'Fe', 'Cu', 'O']",9.0,-60.4777133,0.007072294414370184,-2.5757174171303632e-14,
15089,Ba1Er2F8,mp-12803,BaEr2F8,"['Ba', 'Er', 'F']",11.0,-71.27500678,1.2434497875801753e-14,-2.6645352591003757e-15,
13952,Ba4Er8O16,mp-1193827,BaEr2O4,"['Ba', 'Er', 'O']",28.0,-216.40232502,0.00013325036690758907,0.0,
3509,Ba2Er4O20Si6,mp-1195744,BaEr2Si3O10,"['Ba', 'Er', 'Si', 'O']",32.0,-255.63856087,0.0005734609716796513,0.0,
16844,Ba2Er8O34Si10,mp-1195598,BaEr4Si5O17,"['Ba', 'Er', 'Si', 'O']",54.0,-436.70640749,0.00031336769817613686,-3.019806626980426e-14,
20197,Ag2Ba2Er2Se6,mp-1102849,BaErAgSe3,"['Ba', 'Er', 'Ag', 'Se']",12.0,-57.97013608,0.001955299200846028,0.0,
9015,Ba2Cu2Er2S6,mp-14969,BaErCuS3,"['Ba', 'Er', 'Cu', 'S']",12.0,-66.47640877,0.00010417537597540161,0.0,
13618,Ba2Cu2Er2Se6,mp-1101781,BaErCuSe3,"['Ba', 'Er', 'Cu', 'Se']",12.0,-61.00158704,0.003535639122721257,0.0,
13567,Ba1Eu2Mn2O7,mp-1183437,BaEu2Mn2O7,"['Ba', 'Eu', 'Mn', 'O']",12.0,-99.89763256,0.03926725895831673,0.0,
28137,Ba4Eu8O16,mp-1019738,BaEu2O4,"['Ba', 'Eu', 'O']",28.0,-244.4577815,0.0638542827148445,0.0,
14749,Ba2Eu4O10Pd2,mp-1182243,BaEu2PdO5,"['Ba', 'Eu', 'Pd', 'O']",18.0,-145.2595452,0.07006672200616038,0.0,
13509,Ba2Eu4O10Pt2,mp-1188181,BaEu2PtO5,"['Ba', 'Eu', 'Pt', 'O']",18.0,-147.50834721,0.047575106043590054,0.0,
3946,Ba1F2,mp-1029,BaF2,"['Ba', 'F']",3.0,-17.30988522,6.344208821573716e-05,0.0,
16213,Ba2F6,mp-1080821,BaF3,"['Ba', 'F']",8.0,-38.09455656,0.03816528183715828,0.0,
8888,Ba4Fe4O40Si16,mp-19165,BaFe(Si2O5)2,"['Ba', 'Fe', 'Si', 'O']",64.0,-488.35923686,0.0,0.0,
30807,Ba2Fe4O28P8,mp-1190858,BaFe2(P2O7)2,"['Ba', 'Fe', 'P', 'O']",42.0,-302.20249416,0.0,0.0,
18309,Ba2Fe4O16P4,mp-1103865,BaFe2(PO4)2,"['Ba', 'Fe', 'P', 'O']",26.0,-187.05479937,0.004237390430437138,0.0,
5883,Ba2Fe4O24Se8,mp-561035,BaFe2(SeO3)4,"['Ba', 'Fe', 'Se', 'O']",38.0,-222.44192369,4.403246916062642e-05,-2.6645352591003757e-15,
31748,Ba2F4Fe4O14P4,mp-561063,BaFe2P2O7F2,"['Ba', 'Fe', 'P', 'O', 'F']",28.0,-193.92089647,0.0,0.0,
10380,Ba4Fe8O20Pb4,mp-1215009,BaFe2PbO5,"['Ba', 'Fe', 'Pb', 'O']",36.0,-227.74121117,0.010980850180940749,0.0,
2896,Ba4Fe8O28Si8,mp-1214455,BaFe2Si2O7,"['Ba', 'Fe', 'Si', 'O']",48.0,-352.63455936,0.003549155113278246,-1.4210854715202004e-14,
24367,Ba2Fe6O24P6,mp-1194498,BaFe3(PO4)3,"['Ba', 'Fe', 'P', 'O']",38.0,-273.27187593,2.842170943040401e-14,0.0,
29515,Ba8F40Fe8,mp-14999,BaFeF5,"['Ba', 'Fe', 'F']",56.0,-310.4120905,5.329070518200751e-15,5.329070518200751e-15,
31493,Ba6Fe6O18,mp-1192651,BaFeO3,"['Ba', 'Fe', 'O']",30.0,-190.0037089,0.01143974890625099,0.0,
15808,Ba4F8Fe4O16P4,mp-1214449,BaFeP(O2F)2,"['Ba', 'Fe', 'P', 'O', 'F']",36.0,-240.86703235,1.7763568394002505e-15,0.0,
12122,Ba1Ga2,mp-1219,BaGa2,"['Ba', 'Ga']",3.0,-9.3650975,0.0005072033691408961,0.0,
23999,Ba4Ga8Ge8O32,mp-540585,BaGa2(GeO4)2,"['Ba', 'Ga', 'Ge', 'O']",52.0,-332.97699205,0.0,0.0,
29411,Ba4Ga8O32Si8,mp-6759,BaGa2(SiO4)2,"['Ba', 'Ga', 'Si', 'O']",52.0,-366.60795927,0.0,0.0,
6262,B4Ba2Ga4O14,mp-560870,BaGa2B2O7,"['Ba', 'Ga', 'B', 'O']",24.0,-168.6494416,0.0001500112548837862,0.0,
20732,Ba1Ga2S6Si1,mp-1227993,BaGa2SiS6,"['Ba', 'Ga', 'Si', 'S']",10.0,-48.51457021,0.006073948210937985,0.0,
27438,Ba1Ga4,mp-335,BaGa4,"['Ba', 'Ga']",5.0,-16.28660654,0.0,0.0,
5070,Ba2Ga8O14,mp-769971,BaGa4O7,"['Ba', 'Ga', 'O']",24.0,-147.38672578,0.0007993642692056824,-1.1546319456101628e-14,
12168,Ba2Ga8S14,mp-4309,BaGa4S7,"['Ba', 'Ga', 'S']",24.0,-109.1515166,0.004279415175777679,0.0,
28285,B8Ba2Ga2H6O20,mp-1194652,BaGaB4H3O10,"['Ba', 'Ga', 'B', 'H', 'O']",38.0,-264.77482023,1.0391687510491465e-13,0.0,
2740,B2Ba2F4Ga2O6,mp-10509,BaGaBO3F2,"['Ba', 'Ga', 'B', 'O', 'F']",16.0,-105.23861183,5.164250488576272e-06,0.0,
25208,Ba1Cu2Ga1,mp-1008511,BaGaCu2,"['Ba', 'Ga', 'Cu']",4.0,-14.02308228,0.0,0.0,
11085,Ba4F20Ga4,mp-541629,BaGaF5,"['Ba', 'Ga', 'F']",28.0,-147.40773495,-5.329070518200751e-15,0.0,
4198,Ba4Ga4Ge4,mp-1102026,BaGaGe,"['Ba', 'Ga', 'Ge']",12.0,-44.80592485,0.0,0.0,
13013,Ba2Ga2H10,mp-1540000,BaGaH5,"['Ba', 'Ga', 'H']",14.0,-47.14803109,-3.1086244689504383e-15,-3.1086244689504383e-15,
25809,Ba1Ga1Si1,mp-1227940,BaGaSi,"['Ba', 'Ga', 'Si']",3.0,-11.72891623,0.00020085373291012232,0.0,
370,Ba1Ga1H1Si1,mp-1008506,BaGaSiH,"['Ba', 'Ga', 'Si', 'H']",4.0,-15.40817931,8.792015014646992e-05,0.0,
18293,Ba1Ga1H1Sn1,mp-1018094,BaGaSnH,"['Ba', 'Ga', 'Sn', 'H']",4.0,-14.33842362,1.1923369140465212e-05,0.0,
13489,Ba4Gd8O16,mp-17143,BaGd2O4,"['Ba', 'Gd', 'O']",28.0,-289.41835695,0.009422763783481614,0.0,
17204,Ba2Gd4O10Pd2,mp-505438,BaGd2PdO5,"['Ba', 'Gd', 'Pd', 'O']",18.0,-167.38508786,0.02215093994737316,1.7763568394002505e-14,
8301,Ba4Gd8O28Sc8,mp-1202710,BaGd2Sc2O7,"['Ba', 'Gd', 'Sc', 'O']",48.0,-471.61112274,0.0030428217428557502,0.0,
27112,Ba2Gd4O20Si6,mp-1197749,BaGd2Si3O10,"['Ba', 'Gd', 'Si', 'O']",32.0,-292.07927999,0.004587968146973154,0.0,
14883,Ba2Cu2Gd2S6,mp-1102297,BaGdCuS3,"['Ba', 'Gd', 'Cu', 'S']",12.0,-85.49587238,0.0,0.0,
8644,Ba1Ge1O8P2,mp-1095485,BaGe(PO4)2,"['Ba', 'Ge', 'P', 'O']",12.0,-85.06032046,0.0,0.0,
20181,Ba4Ge4O84S24,mp-1019548,BaGe(S2O7)3,"['Ba', 'Ge', 'S', 'O']",116.0,-706.47792092,0.0,0.0,
28640,Au20Ba4Ge8,mp-1198185,BaGe2Au5,"['Ba', 'Ge', 'Au']",32.0,-121.4587139,0.0,0.0,
24424,Ba4Ge8S20,mp-28710,BaGe2S5,"['Ba', 'Ge', 'S']",32.0,-154.02098381,4.440892098500626e-15,4.440892098500626e-15,
16820,Ba1Ge3Ir1,mp-1069708,BaGe3Ir,"['Ba', 'Ge', 'Ir']",5.0,-27.25095828,0.0,2.6645352591003757e-15,
15165,Ba1Ge3Pd1,mp-1068447,BaGe3Pd,"['Ba', 'Ge', 'Pd']",5.0,-23.8195384,0.0,0.0,
29293,Ba1Ge3Pt1,mp-22346,BaGe3Pt,"['Ba', 'Ge', 'Pt']",5.0,-25.02102743,4.440892098500626e-15,4.440892098500626e-15,
25788,Ba1Ge3Rh1,mp-1070247,BaGe3Rh,"['Ba', 'Ge', 'Rh']",5.0,-25.96696038,0.0,0.0,
6694,Ba3Ge12O27,mp-3848,BaGe4O9,"['Ba', 'Ge', 'O']",42.0,-275.16021883,0.0,0.0,
7701,Ba2Ge14N20,mp-1029679,BaGe7N10,"['Ba', 'Ge', 'N']",36.0,-240.88829463,-8.881784197001252e-16,-8.881784197001252e-16,
3519,Au3Ba1Ge1,mp-1227958,BaGeAu3,"['Ba', 'Ge', 'Au']",5.0,-18.9234536,0.0,0.0,
8792,Ba16Ge16N32,mp-1029743,BaGeN2,"['Ba', 'Ge', 'N']",64.0,-398.29093321,0.0038765151079642735,0.0,
13021,Ba4Ge4O12,mp-13863,BaGeO3,"['Ba', 'Ge', 'O']",20.0,-131.21956747,0.0,0.0,
20773,Ba4Ge4Pt4,mp-22151,BaGePt,"['Ba', 'Ge', 'Pt']",12.0,-61.25467868,0.0,0.0,
4932,Ba8Ge8S24,mp-1195469,BaGeS3,"['Ba', 'Ge', 'S']",40.0,-196.89354651,0.0,0.0,
22305,Ba4H8,mp-23715,BaH2,"['Ba', 'H']",12.0,-40.66219373,0.0,0.0,
26475,Ba2H8O6,mp-23904,BaH4O3,"['Ba', 'H', 'O']",16.0,-84.98521499,1.0546126708810277e-05,0.0,
6379,Ba2Br2H10O6,mp-642844,BaH5BrO3,"['Ba', 'H', 'Br', 'O']",20.0,-99.40656221,0.0013593284648250048,0.0,
20273,Ba2Cl2H10O6,mp-642834,BaH5ClO3,"['Ba', 'H', 'Cl', 'O']",20.0,-100.68429769,0.0009626515107248323,-1.865174681370263e-14,
17658,Ba4F32H24,mp-557810,BaH6F8,"['Ba', 'H', 'F']",60.0,-275.3167364,1.0207949218354884e-05,0.0,
29269,Ba4H32O20,mp-28587,BaH8O5,"['Ba', 'H', 'O']",56.0,-289.38403831,0.0,0.0,
26401,Ba2Br2H2,mp-24424,BaHBr,"['Ba', 'H', 'Br']",6.0,-22.45016286,0.00017208304605764724,-3.552713678800501e-15,
6529,Ba4Br4H4O4,mp-643036,BaHBrO,"['Ba', 'H', 'Br', 'O']",16.0,-79.54201947,0.0018228416577148465,0.0,
20866,Ba2Cl2H2,mp-23861,BaHCl,"['Ba', 'H', 'Cl']",6.0,-23.74621787,3.915067463911015e-05,-3.552713678800501e-15,
31795,Ba4Cl4H4O4,mp-24565,BaHClO,"['Ba', 'H', 'Cl', 'O']",16.0,-81.7471848,0.023704197833252394,0.0,
9729,Ba2H2I2,mp-23862,BaHI,"['Ba', 'H', 'I']",6.0,-20.95676406,1.738119465821697e-05,-3.1086244689504383e-15,
18190,Ba4H4I4O4,mp-643384,BaHIO,"['Ba', 'H', 'I', 'O']",16.0,-76.95111191,0.0012411364233404498,0.0,
8735,B4Ba2Hf2O12,mp-1105495,BaHf(BO3)2,"['Ba', 'Hf', 'B', 'O']",20.0,-169.79545058,0.00022397368554649688,0.0,
28518,Ba1Hf1O8P2,mp-545548,BaHf(PO4)2,"['Ba', 'Hf', 'P', 'O']",12.0,-97.00203318,0.0006261158186866567,0.0,
9866,Ba2Hf2O18Si6,mp-1194160,BaHf(SiO3)3,"['Ba', 'Hf', 'Si', 'O']",28.0,-231.55816706,2.6587107962328105e-05,0.0,
24591,Ba2F12Hf2,mp-1214420,BaHfF6,"['Ba', 'Hf', 'F']",16.0,-108.53748853,0.021558349321288972,0.0,
20978,Ba2Hf2N4,mp-10322,BaHfN2,"['Ba', 'Hf', 'N']",8.0,-67.83043243,0.0,0.0,
12212,Ba1Hf1O3,mp-998552,BaHfO3,"['Ba', 'Hf', 'O']",5.0,-43.59262024,3.614487109260267e-05,-8.881784197001252e-15,
15189,Ba4Hf4S12,mp-1105549,BaHfS3,"['Ba', 'Hf', 'S']",20.0,-133.91298441,0.0001948224687495781,0.0,
7593,Ba1Hg1,mp-2197,BaHg,"['Ba', 'Hg']",2.0,-3.28871749,0.0,0.0,
12209,Ba1Hg2,mp-11267,BaHg2,"['Ba', 'Hg']",3.0,-4.04367412,0.0,0.0,
8354,Ba4Cl8Hg8O8,mp-555736,BaHg2(ClO)2,"['Ba', 'Hg', 'Cl', 'O']",28.0,-100.58517607,0.0,0.0,
27498,Ba1Hg2Pb1,mp-864618,BaHg2Pb,"['Ba', 'Hg', 'Pb']",4.0,-7.97262961,0.017350816901041455,0.0,
15918,Ba2Hg6,mp-867770,BaHg3,"['Ba', 'Hg']",8.0,-9.16936091,0.0017457263989257843,0.0,
11689,Ba4Hg24,mp-1193593,BaHg6,"['Ba', 'Hg']",28.0,-22.75094896,0.0,0.0,
3705,As4Ba2Hg2O14,mp-1190454,BaHgAs2O7,"['Ba', 'Hg', 'As', 'O']",22.0,-125.18429268,0.00017335851740085673,0.0,
9436,Ba1Hg1O2,mp-3915,BaHgO2,"['Ba', 'Hg', 'O']",4.0,-18.59432336,0.0,0.0,
8721,Ba2Hg2Pb2,mp-1228081,BaHgPb,"['Ba', 'Hg', 'Pb']",6.0,-14.87275402,0.004799537773844342,0.0,
8170,Ba6Hg6O30Ru6,mp-560702,BaHgRuO5,"['Ba', 'Hg', 'Ru', 'O']",48.0,-280.56719378,3.860105957009807e-05,0.0,
5852,Ba4Hg4S8,mp-28007,BaHgS2,"['Ba', 'Hg', 'S']",16.0,-60.46679978,1.8554858396413465e-06,0.0,
25709,Ba4Ho8O16,mp-17363,BaHo2O4,"['Ba', 'Ho', 'O']",28.0,-216.08217852,0.0,0.0,
5125,Ba2Ho8O34Si10,mp-1195686,BaHo4Si5O17,"['Ba', 'Ho', 'Si', 'O']",54.0,-436.44364763,0.00015180260561287184,-3.019806626980426e-14,
18083,Ba4I8,mp-23260,BaI2,"['Ba', 'I']",12.0,-41.44445723,0.009114136981608567,0.0,
20461,Ba4Br4I4,mp-1214491,BaIBr,"['Ba', 'I', 'Br']",12.0,-44.82735502,0.0,0.0,
2126,Ba2F2I2,mp-22951,BaIF,"['Ba', 'I', 'F']",6.0,-27.91127024,0.0005539361352546734,-4.440892098500626e-15,
28,Ba4In4,mp-31509,BaIn,"['Ba', 'In']",8.0,-22.04372154,4.776030456543623e-05,0.0,
11932,Ba2In4,mp-22141,BaIn2,"['Ba', 'In']",6.0,-17.73620806,0.0,0.0,
6360,Ba2In4O28P8,mp-1205018,BaIn2(P2O7)2,"['Ba', 'In', 'P', 'O']",42.0,-291.39970596,0.00016434958519351284,-2.6645352591003757e-14,
4559,Ba2In4Ir2,mp-22780,BaIn2Ir,"['Ba', 'In', 'Ir']",8.0,-35.46881209,0.0011800401110839687,0.0,
11403,Ba2In4Pd2,mp-1025520,BaIn2Pd,"['Ba', 'In', 'Pd']",8.0,-29.76424433,0.0008654281408690956,0.0,
12522,Ba2In4Pt2,mp-21032,BaIn2Pt,"['Ba', 'In', 'Pt']",8.0,-32.02719703,0.0,0.0,
21962,Ba2In4Rh2,mp-11078,BaIn2Rh,"['Ba', 'In', 'Rh']",8.0,-33.26622304,0.0,0.0,
28375,Ba1In4,mp-22687,BaIn4,"['Ba', 'In']",5.0,-14.69019563,0.0,0.0,
22010,Ba1In9Ir2,mp-1095357,BaIn9Ir2,"['Ba', 'In', 'Ir']",12.0,-47.35339504,0.0014195793896485398,0.0,
7517,Ba2Cu2F14In2,mp-1228148,BaInCuF7,"['Ba', 'In', 'Cu', 'F']",20.0,-96.86094227,0.00033984328710889855,8.881784197001252e-15,
13506,Ba8F40In8,mp-1214395,BaInF5,"['Ba', 'In', 'F']",56.0,-287.71480943,7.89347935725715e-06,-4.440892098500626e-15,
2209,Ba1F6Ir1,mp-13545,BaIrF6,"['Ba', 'Ir', 'F']",8.0,-41.63923708,0.00024922699951179794,0.0,
25875,Ba4Bi8La4S24,mp-555699,BaLa(BiS3)2,"['Ba', 'La', 'Bi', 'S']",40.0,-205.27872395,7.78027392582814e-05,0.0,
5538,Ba4La4Sb8Se24,mp-1201929,BaLa(SbSe3)2,"['Ba', 'La', 'Sb', 'Se']",40.0,-188.2047842,9.287058593709929e-05,0.0,
12732,Ba2La4S16Si4,mp-1228069,BaLa2(SiS4)2,"['Ba', 'La', 'Si', 'S']",26.0,-152.00641117,0.0003369314122592115,0.0,
30785,Ba4Be4La8O20,mp-18414,BaLa2BeO5,"['Ba', 'La', 'Be', 'O']",36.0,-272.89303677,0.0,0.0,
4873,Ba2La4Mn2S10,mp-6770,BaLa2MnS5,"['Ba', 'La', 'Mn', 'S']",18.0,-116.49687196,3.746227213774489e-06,0.0,
8260,Ba2La4O8,mp-755558,BaLa2O4,"['Ba', 'La', 'O']",14.0,-107.82269274,0.0,0.0,
24600,Ba2La4O10Pd2,mp-1105217,BaLa2PdO5,"['Ba', 'La', 'Pd', 'O']",18.0,-131.05111737,1.3322676295501878e-14,1.3322676295501878e-14,
21523,Ba2La4O10Pt2,mp-8809,BaLa2PtO5,"['Ba', 'La', 'Pt', 'O']",18.0,-132.88781555,0.0,0.0,
13742,Ba4La8O28Sc8,mp-1197417,BaLa2Sc2O7,"['Ba', 'La', 'Sc', 'O']",48.0,-399.43831974,5.84225716160347e-05,0.0,
24085,Ba2La4O28Te10,mp-559703,BaLa2Te5O14,"['Ba', 'La', 'Te', 'O']",44.0,-276.44326406,6.155729807666432e-06,4.796163466380676e-14,
8505,Ba4La8O28W4,mp-1203123,BaLa2WO7,"['Ba', 'La', 'W', 'O']",44.0,-345.3506937,0.0013959606090043764,0.0,
15858,Ba2La4S10Zn2,mp-16452,BaLa2ZnS5,"['Ba', 'La', 'Zn', 'S']",18.0,-101.15024081,8.679093966179607e-06,0.0,
31182,Ag2Ba2La2Se6,mp-1101818,BaLaAgSe3,"['Ba', 'La', 'Ag', 'Se']",12.0,-59.65229924,0.001921291360677202,0.0,
5839,Ag2Ba2La2Te6,mp-1214348,BaLaAgTe3,"['Ba', 'La', 'Ag', 'Te']",12.0,-54.26791233,0.0020738544986986795,0.0,
6501,B12Ba1La1,mp-1227841,BaLaB12,"['Ba', 'La', 'B']",14.0,-93.86169426,0.0004610388364953977,0.0,
15470,Ba4Cu4La4S12,mp-18079,BaLaCuS3,"['Ba', 'La', 'Cu', 'S']",24.0,-134.62264332,0.007995701713866765,0.0,
30059,Ba4Cu4La4Se12,mp-541430,BaLaCuSe3,"['Ba', 'La', 'Cu', 'Se']",24.0,-124.67020747,0.00027299197265673314,0.0,
27962,Ba4Cu4La4Te12,mp-17063,BaLaCuTe3,"['Ba', 'La', 'Cu', 'Te']",24.0,-112.89948482,0.00073288843566921,0.0,
30938,Ba2Ga6La2O14,mp-1227901,BaLaGa3O7,"['Ba', 'La', 'Ga', 'O']",24.0,-159.81732526,0.0001764448551435649,0.0,
8850,Ba2I8La2,mp-30111,BaLaI4,"['Ba', 'La', 'I']",12.0,-45.31020566,0.002896098920490253,0.0,
15024,Ba2La2Si4,mp-1078225,BaLaSi2,"['Ba', 'La', 'Si']",8.0,-40.18547238,0.0012476083837889007,0.0,
18794,B18Ba2Li2O30,mp-17672,BaLi(B3O5)3,"['Ba', 'Li', 'B', 'O']",52.0,-408.8273388,0.0017531657301663728,3.019806626980426e-14,
430,B6Ba2Li2S12,mp-557892,BaLi(BS2)3,"['Ba', 'Li', 'B', 'S']",22.0,-117.70864046,0.0013803952397015706,9.769962616701378e-15,
13715,Ba2Li4Mn2O16V4,mp-1103771,BaLi2MnV2O8,"['Ba', 'Li', 'Mn', 'V', 'O']",28.0,-197.17579047,0.0029559406133730093,0.0,
29109,Ba2Li4Si2,mp-27454,BaLi2Si,"['Ba', 'Li', 'Si']",8.0,-24.52594271,0.002300130000000067,0.0,