,Composition,MaterialId,Reduced Formula,Elements,NSites,Corrected Energy,Decomposition Energy Per Atom All,Decomposition Energy Per Atom MP,Directory
2626,Ga4Gd6Ni12,mp-1191116,Gd3(GaNi3)2,"['Gd', 'Ga', 'Ni']",22.0,-177.47918986,0.0058724235777702916,0.0,
21764,C12Gd6Mn4,mp-28826,Gd3(MnC3)2,"['Gd', 'Mn', 'C']",22.0,-237.66615811,0.006339098915129071,0.0,
22610,Gd3P6Pd20,mp-1213489,Gd3(P3Pd10)2,"['Gd', 'P', 'Pd']",29.0,-199.15213644,0.0,0.0,
3145,Gd6Ni12Si4,mp-1192140,Gd3(SiNi3)2,"['Gd', 'Si', 'Ni']",22.0,-189.19153427,0.004317966864347156,0.0,
22683,Al20Gd12O48,mp-14133,Gd3Al5O12,"['Gd', 'Al', 'O']",80.0,-740.32631972,0.004579768148433416,-3.552713678800501e-15,
16889,Ag2Al7Gd3,mp-637182,Gd3Al7Ag2,"['Gd', 'Al', 'Ag']",12.0,-79.71779553,0.0,2.6645352591003757e-15,
4235,Al1C1Gd3,mp-580539,Gd3AlC,"['Gd', 'Al', 'C']",5.0,-56.90732467,0.01350195442773483,0.0,
1175,As10Gd6O24,mp-768273,Gd3As5O12,"['Gd', 'As', 'O']",40.0,-334.71341829,0.01786068952429254,0.0,
20091,Au1Gd3O6,mp-10559,Gd3AuO6,"['Gd', 'Au', 'O']",10.0,-101.9672694,0.009377503359374373,0.0,
14157,B14Gd6W2,mp-1190670,Gd3B7W,"['Gd', 'B', 'W']",22.0,-215.54566986,0.022338090414594447,0.0,
5196,B4Br12Gd12,mp-1212672,Gd3BBr3,"['Gd', 'B', 'Br']",28.0,-251.36108961,0.023379576539014124,0.0,
17644,Bi2Gd6O6,mp-1103896,Gd3BiO3,"['Gd', 'Bi', 'O']",14.0,-160.44456251,0.011919031791295609,0.0,
185,C4Cl12Gd12,mp-28133,Gd3CCl3,"['Gd', 'C', 'Cl']",28.0,-271.23593553,0.008040554104352893,0.0,
30730,C2Gd6I6,mp-1104611,Gd3CI3,"['Gd', 'C', 'I']",14.0,-126.48780371,0.0,0.0,
27222,B4Co11Gd3,mp-605854,Gd3Co11B4,"['Gd', 'Co', 'B']",18.0,-153.35099284,0.00853663759742851,0.0,
16251,Cu6Gd6Sb8,mp-1189617,Gd3Cu3Sb4,"['Gd', 'Cu', 'Sb']",20.0,-157.097068,0.001583294335922858,-1.4210854715202004e-14,
25918,Cu2Gd6Ge2S14,mp-573114,Gd3CuGeS7,"['Gd', 'Cu', 'Ge', 'S']",24.0,-194.62932293,0.0,0.0,
610,Cu2Gd6S14Si2,mp-1191406,Gd3CuSiS7,"['Gd', 'Cu', 'Si', 'S']",24.0,-198.39481239,0.0028566126562417082,-7.105427357601002e-15,
13412,Cu2Gd6Se14Si2,mp-641576,Gd3CuSiSe7,"['Gd', 'Cu', 'Si', 'Se']",24.0,-184.6037022,0.004742866910807386,0.0,
9998,Cu2Gd6S14Sn2,mp-556782,Gd3CuSnS7,"['Gd', 'Cu', 'Sn', 'S']",24.0,-192.96929539,0.006401310700919538,0.0,
20755,Ga4Gd6,mp-1985644,Gd3Ga2,"['Gd', 'Ga']",10.0,-101.66034626,0.0208664665292968,0.0,
14050,Ga20Gd12O48,mp-2921,Gd3Ga5O12,"['Gd', 'Ga', 'O']",80.0,-668.62790884,0.005223508884764527,0.0,
15412,Ga2Gd6O12,mp-3594,Gd3GaO6,"['Gd', 'Ga', 'O']",20.0,-211.93086196,0.00918063857226592,0.0,
1205,Gd6Ge26Ir8,mp-1197897,Gd3Ge13Ir4,"['Gd', 'Ge', 'Ir']",40.0,-296.41855851,0.0,0.0,
9536,Gd6Ge26Ru8,mp-1197955,Gd3Ge13Ru4,"['Gd', 'Ge', 'Ru']",40.0,-296.69168983,0.0,0.0,
30007,Gd3I1,mp-1184423,Gd3I,"['Gd', 'I']",4.0,-44.14269441,0.3997061480696633,0.0,
21343,Gd3In1,mp-1184479,Gd3In,"['Gd', 'In']",4.0,-46.22265576,0.011546257448729946,0.0,
17611,Gd3In1N1,mp-637378,Gd3InN,"['Gd', 'In', 'N']",5.0,-58.0778368,0.012802555771486368,0.0,
11041,Ga2Gd6Mn2S14,mp-1191699,Gd3MnGaS7,"['Gd', 'Mn', 'Ga', 'S']",24.0,-203.70809716,0.005295946785077277,0.0,
30519,Gd12Mo4O28,mp-1204194,Gd3MoO7,"['Gd', 'Mo', 'O']",44.0,-465.98770241,0.10145916246063003,0.0,
1024,Cl12Gd6N2,mp-651160,Gd3NCl6,"['Gd', 'N', 'Cl']",20.0,-166.77907901,0.01254160919237357,0.0,
4098,B4Gd6Ni14,mp-1192940,Gd3Ni7B2,"['Gd', 'Ni', 'B']",24.0,-203.51996448,0.004902908222655711,0.0,
15794,Gd24O56Os8,mp-567291,Gd3OsO7,"['Gd', 'Os', 'O']",88.0,-943.2507539,0.007915969399469702,0.0,
5955,Gd3P4Pd7,mp-647029,Gd3P4Pd7,"['Gd', 'P', 'Pd']",14.0,-114.02728801,0.004672625924943219,0.0,
9986,Gd12Pt4,mp-1106170,Gd3Pt,"['Gd', 'Pt']",16.0,-204.03466576,0.012412209274902608,0.0,
24971,Gd12O32Re4,mp-30137,Gd3ReO8,"['Gd', 'Re', 'O']",48.0,-511.99616909,0.007397854651692626,1.0658141036401503e-14,
9262,Gd24O56Ru8,mp-683963,Gd3RuO7,"['Gd', 'Ru', 'O']",88.0,-926.48615489,0.008359906652444238,0.0,
11366,Gd12N4S12,mp-647096,Gd3S3N,"['Gd', 'S', 'N']",28.0,-307.29778363,0.024841947296314615,0.0,
29583,F10Gd6O2S2,mp-1224717,Gd3SOF5,"['Gd', 'S', 'O', 'F']",20.0,-194.84473249,0.009907616833007893,0.0,
7952,Au6Gd6Sb8,mp-1188599,Gd3Sb4Au3,"['Gd', 'Sb', 'Au']",20.0,-154.01592698,0.0,0.0,
30624,Gd6O24Sb10,mp-505046,Gd3Sb5O12,"['Gd', 'Sb', 'O']",40.0,-333.17754973,0.004516041906249768,0.0,
16956,Gd6O14Sb2,mp-1191117,Gd3SbO7,"['Gd', 'Sb', 'O']",22.0,-226.34645925,0.05964473644961288,-5.329070518200751e-15,
22757,Gd3S7Sc2,mp-1224776,Gd3Sc2S7,"['Gd', 'Sc', 'S']",12.0,-108.14275903,0.00460133642824978,0.0,
29922,Gd12S24Sc4,mp-1213337,Gd3ScS6,"['Gd', 'Sc', 'S']",40.0,-375.13693571,0.005224300121094316,0.0,
12441,Gd12N4Se12,mp-1193201,Gd3Se3N,"['Gd', 'Se', 'N']",28.0,-296.02655781,0.0125861137193084,0.0,
17898,F2Gd6O24Se8,mp-559447,Gd3Se4O12F,"['Gd', 'Se', 'O', 'F']",40.0,-315.84488075,0.007788300769057344,0.0,
13222,Cl10Gd6O12Si4,mp-560513,Gd3Si2Cl5O6,"['Gd', 'Si', 'Cl', 'O']",32.0,-272.50581397,0.009973175196531514,0.0,
6145,Br12Gd12Si4,mp-1212738,Gd3SiBr3,"['Gd', 'Si', 'Br']",28.0,-250.0504729,0.0,0.0,
5987,C1Gd3Sn1,mp-1207074,Gd3SnC,"['Gd', 'Sn', 'C']",5.0,-58.50408042,0.013316606429693678,0.0,
18615,Gd6O14Ta2,mp-779424,Gd3TaO7,"['Gd', 'Ta', 'O']",22.0,-251.50340191,0.009177332393464965,0.0,
30632,Gd12N4O4Te8,mp-1194646,Gd3Te2NO,"['Gd', 'Te', 'N', 'O']",28.0,-304.88049094,0.0,0.0,
31751,C1Gd3Tl1,mp-1207135,Gd3TlC,"['Gd', 'Tl', 'C']",5.0,-55.90936423,0.007146166451171609,0.0,
3978,Gd16S48Si12,mp-1199792,Gd4(SiS4)3,"['Gd', 'Si', 'S']",76.0,-596.8864726,0.0028869122327304098,0.0,
4324,Au8Gd16O36,mp-623092,Gd4Au2O9,"['Gd', 'Au', 'O']",60.0,-573.03188412,0.01653800717968501,-3.552713678800501e-15,
13030,B3C4Gd4,mp-29821,Gd4B3C4,"['Gd', 'B', 'C']",11.0,-117.80226141,0.024901644944968382,0.0,
17774,B4Cl4Gd16O28,mp-1201615,Gd4BClO7,"['Gd', 'B', 'Cl', 'O']",52.0,-566.57811797,0.006688499074559928,4.085620730620576e-14,
10385,C8Cl12Gd16,mp-1203227,Gd4C2Cl3,"['Gd', 'C', 'Cl']",36.0,-368.6374652,0.006605289312066276,0.0,
18586,Co9Gd12,mp-1225806,Gd4Co3,"['Gd', 'Co']",21.0,-235.72316771,0.052061975357375445,0.0,
319,Co3Ga16Gd4,mp-866687,Gd4Ga16Co3,"['Gd', 'Ga', 'Co']",23.0,-137.86965675,0.0,0.0,
15383,Gd16In4Ir4,mp-1192794,Gd4InIr,"['Gd', 'In', 'Ir']",24.0,-285.24105934,0.0,0.0,
18495,C4Gd4Ni13,mp-866397,Gd4Ni13C4,"['Gd', 'Ni', 'C']",21.0,-175.12926051,0.004653046538320993,3.552713678800501e-15,
31586,Gd8Sb6,mp-20831,Gd4Sb3,"['Gd', 'Sb']",14.0,-152.23958301,0.010970214687501922,0.0,
16665,Gd4O4Se4Ti1,mp-554519,Gd4Ti(SeO)4,"['Gd', 'Ti', 'Se', 'O']",13.0,-132.04234645,0.01417645621999064,0.0,
11026,Al4Co4Gd10,mp-1189017,Gd5(AlCo)2,"['Gd', 'Al', 'Co']",18.0,-189.84296927,0.0,0.0,
22692,C12Cl6Gd10,mp-866789,Gd5(C2Cl)3,"['Gd', 'C', 'Cl']",28.0,-287.92857158,0.014365337335378925,0.0,
29373,C8Cl36Gd20,mp-1199531,Gd5C2Cl9,"['Gd', 'C', 'Cl']",64.0,-542.29609536,0.0009814432962791386,0.0,
18406,Gd20Ge16,mp-1198083,Gd5Ge4,"['Gd', 'Ge']",36.0,-385.77259881,0.018749251534289968,0.0,
16839,Gd5P12Ru19,mp-1199296,Gd5P12Ru19,"['Gd', 'P', 'Ru']",36.0,-342.42670389,0.002677719906683862,0.0,
24074,Gd10Pb6,mp-1106250,Gd5Pb3,"['Gd', 'Pb']",16.0,-171.87438981,0.0,0.0,
20439,Gd20Si16,mp-1199486,Gd5Si4,"['Gd', 'Si']",36.0,-394.7560319,0.013146968164063466,0.0,
5375,Br10Co1Gd6,mp-637600,Gd6CoBr10,"['Gd', 'Co', 'Br']",17.0,-134.95758909,0.012677541753218335,0.0,
17430,Gd6O12W1,mp-753421,Gd6WO12,"['Gd', 'W', 'O']",19.0,-212.84443217,0.010043287824837321,0.0,
4758,Gd8O8Sb3,mp-1224996,Gd8Sb3O8,"['Gd', 'Sb', 'O']",19.0,-217.59976556,0.002426888122439408,0.0,
23353,Ag1Gd1,mp-542779,GdAg,"['Gd', 'Ag']",2.0,-17.52605334,0.00742487571533168,0.0,
14159,Ag2Gd1,mp-19783,GdAg2,"['Gd', 'Ag']",3.0,-20.61130433,0.008219703313802285,0.0,
5105,Ag8Gd8S16,mp-1200242,GdAgS2,"['Gd', 'Ag', 'S']",32.0,-244.01359963,0.010766509365234711,0.0,
16728,Ag1Gd1Sn2,mp-1224681,GdAgSn2,"['Gd', 'Ag', 'Sn']",4.0,-26.75923143,0.003817764780966293,0.0,
19474,Al4Gd4,mp-1078585,GdAl,"['Gd', 'Al']",8.0,-74.59554507,0.01639720591064453,0.0,
12792,Al4Gd2,mp-19923,GdAl2,"['Gd', 'Al']",6.0,-46.32055245,0.007689856559244923,0.0,
15020,Al4Gd2Ni2,mp-630019,GdAl2Ni,"['Gd', 'Al', 'Ni']",8.0,-59.66177819,0.006164940910644567,0.0,
13541,Al6Gd2,mp-865411,GdAl3,"['Gd', 'Al']",8.0,-54.11018388,0.050800779801025264,0.0,
16823,Al3Cu1Gd1,mp-1076933,GdAl3Cu,"['Gd', 'Al', 'Cu']",5.0,-31.66094573,0.00467227367773404,0.0,
31643,Al9Gd3Ni6,mp-1212604,GdAl3Ni2,"['Gd', 'Al', 'Ni']",18.0,-122.21945356,1.7763568394002505e-15,1.7763568394002505e-15,
21827,Al3Gd1Pd2,mp-22505,GdAl3Pd2,"['Gd', 'Al', 'Pd']",6.0,-40.76970006,0.003258226694337729,1.7763568394002505e-15,
25510,Al8Gd2Ni2,mp-1095605,GdAl4Ni,"['Gd', 'Al', 'Ni']",12.0,-76.35537187,0.004294521494140113,0.0,
16398,Al14Au6Gd2,mp-22711,GdAl7Au3,"['Gd', 'Al', 'Au']",22.0,-111.55372677,0.003710633989701506,0.0,
10663,Al3Cu3Gd3,mp-1080612,GdAlCu,"['Gd', 'Al', 'Cu']",9.0,-69.66356184,0.006604192528207875,0.0,
16110,Al4Gd4Ge8O28,mp-1212574,GdAlGe2O7,"['Gd', 'Al', 'Ge', 'O']",44.0,-353.29895271,1.2079226507921703e-13,1.2079226507921703e-13,
11502,Al3Gd3Ni3,mp-1101090,GdAlNi,"['Gd', 'Al', 'Ni']",9.0,-76.03752607,0.005807989292533122,-1.7763568394002505e-15,
22106,Al1Gd1Ni4,mp-1224779,GdAlNi4,"['Gd', 'Al', 'Ni']",6.0,-44.03400984,6.217248937900877e-15,6.217248937900877e-15,
23440,Al3Gd3Pd3,mp-20058,GdAlPd,"['Gd', 'Al', 'Pd']",9.0,-76.7283396,0.010534771346028649,0.0,
23732,Al4Gd4Rh4,mp-1212705,GdAlRh,"['Gd', 'Al', 'Rh']",12.0,-111.47200892,0.007120670851238131,0.0,
8348,Al2Gd2Si2,mp-1224619,GdAlSi,"['Gd', 'Al', 'Si']",6.0,-50.22793402,0.006292923139648465,0.0,
28176,As1Gd1,mp-510374,GdAs,"['Gd', 'As']",2.0,-21.80055144,0.01157711660888694,0.0,
20335,As2Gd2O8,mp-776200,GdAsO4,"['Gd', 'As', 'O']",12.0,-105.24688095,0.0048142166910807305,0.0,
20000,As4Gd4S4,mp-1101897,GdAsS,"['Gd', 'As', 'S']",12.0,-110.32483157,0.009338895452472684,0.0,
26368,Au1Gd1,mp-635426,GdAu,"['Gd', 'Au']",2.0,-19.00761128,0.007861611586914563,0.0,
8000,Au2Gd1,mp-1063174,GdAu2,"['Gd', 'Au']",3.0,-23.09202303,0.004101708505859669,0.0,
21983,B4Gd4O48S12,mp-1194925,GdB(SO4)3,"['Gd', 'B', 'S', 'O']",68.0,-495.20318719,0.0,0.0,
30270,B2Gd1Ir3,mp-1077270,GdB2Ir3,"['Gd', 'B', 'Ir']",6.0,-58.04349087,0.004030309915364683,0.0,
25847,B8Gd4Os4,mp-1188331,GdB2Os,"['Gd', 'B', 'Os']",16.0,-163.07726646,0.007041230466308335,0.0,
25792,B2C1Gd1Rh2,mp-19756,GdB2Rh2C,"['Gd', 'B', 'Rh', 'C']",6.0,-54.93069904,0.0037026919417311177,0.0,
3345,B2Gd1Rh3,mp-22117,GdB2Rh3,"['Gd', 'B', 'Rh']",6.0,-53.67151663,0.002550725647786578,0.0,
18340,B2Gd1Ru3,mp-22335,GdB2Ru3,"['Gd', 'B', 'Ru']",6.0,-58.01698181,0.011413777923177548,0.0,
8912,B16Gd4,mp-1105563,GdB4,"['Gd', 'B']",20.0,-175.12630367,0.005170869966796943,0.0,
25367,B16Gd4Mo4,mp-1190272,GdB4Mo,"['Gd', 'B', 'Mo']",24.0,-221.01601754,0.005982255616862275,0.0,
7025,B16Gd4Os4,mp-1191685,GdB4Os,"['Gd', 'B', 'Os']",24.0,-221.54175271,0.005074624632161573,0.0,
158,B16Gd4Ru4,mp-1192291,GdB4Ru,"['Gd', 'B', 'Ru']",24.0,-214.89329858,0.0050371705761733665,0.0,
3321,B6Gd1,mp-22266,GdB6,"['Gd', 'B']",7.0,-57.34881311,0.0026614249595411366,0.0,
23228,B6Gd6O18,mp-1194303,GdBO3,"['Gd', 'B', 'O']",30.0,-306.2012926,0.006090246666667909,0.0,
7833,B1Gd1Rh3,mp-19840,GdBRh3,"['Gd', 'B', 'Rh']",5.0,-46.62826743,0.0,0.0,
11582,Be26Gd2,mp-1194291,GdBe13,"['Gd', 'Be']",28.0,-130.36900356,0.0055498301325336286,0.0,
21707,B20Be8Gd4O44,mp-1195691,GdBe2B5O11,"['Gd', 'Be', 'B', 'O']",76.0,-641.93284143,0.0,0.0,
23494,Bi1Gd1,mp-614481,GdBi,"['Gd', 'Bi']",2.0,-19.77627173,0.008608863088378271,0.0,
8970,Bi2Br1Gd1O4,mp-562809,GdBi2BrO4,"['Gd', 'Bi', 'Br', 'O']",8.0,-59.08343562,0.004189131179199279,0.0,
24474,Bi2Cl1Gd1O4,mp-549695,GdBi2ClO4,"['Gd', 'Bi', 'Cl', 'O']",8.0,-59.60482834,0.004046798533935636,0.0,
3651,Bi2Gd1I1O4,mp-628631,GdBi2IO4,"['Gd', 'Bi', 'I', 'O']",8.0,-58.42405299,0.0039037537524411192,0.0,
9752,Bi1Gd1Pd1,mp-1076916,GdBiPd,"['Gd', 'Bi', 'Pd']",3.0,-25.96044998,0.007988358107096971,0.0,
3782,Bi1Gd1Pt1,mp-620271,GdBiPt,"['Gd', 'Bi', 'Pt']",3.0,-27.10000906,0.006522782612304212,0.0,
13375,Br6Gd2,mp-27182,GdBr3,"['Gd', 'Br']",8.0,-53.31679003,0.006009587467040944,0.0,
15685,Br2Gd2O2,mp-29797,GdBrO,"['Gd', 'Br', 'O']",6.0,-58.75396168,0.011125450997720776,0.0,
19339,Br2C2Gd2,mp-28755,GdCBr,"['Gd', 'C', 'Br']",6.0,-56.43752041,0.00811313479166742,0.0,
9959,Cd1Gd1,mp-1031,GdCd,"['Gd', 'Cd']",2.0,-15.68919825,0.009869220642089616,0.0,
5860,Cd2Gd1,mp-20965,GdCd2,"['Gd', 'Cd']",3.0,-16.8874124,0.022253880582682406,0.0,
20163,Cd6Gd2,mp-22138,GdCd3,"['Gd', 'Cd']",8.0,-35.93452597,0.0037024613000484763,0.0,
25981,Ag2Cd1Gd1,mp-1184477,GdCdAg2,"['Gd', 'Cd', 'Ag']",4.0,-21.7744553,0.001489343487548922,0.0,
15173,Au2Cd1Gd1,mp-866167,GdCdAu2,"['Gd', 'Cd', 'Au']",4.0,-24.18162239,0.004204540439452842,0.0,
15420,Cd1Gd1Hg2,mp-865745,GdCdHg2,"['Gd', 'Cd', 'Hg']",4.0,-17.16519276,0.006589135286865222,0.0,
20079,Cd3Gd3Pd3,mp-623988,GdCdPd,"['Gd', 'Cd', 'Pd']",9.0,-66.70416973,0.00566106597005156,0.0,
20762,Cl6Gd2,mp-23265,GdCl3,"['Gd', 'Cl']",8.0,-57.16712174,0.04070450906250045,0.0,
13731,Cl2Gd2O2,mp-23050,GdClO,"['Gd', 'Cl', 'O']",6.0,-60.01309797,0.02590291198242234,0.0,
2105,B2Co3Gd1,mp-21252,GdCo3B2,"['Gd', 'Co', 'B']",6.0,-51.55771745,0.004761833691407702,0.0,
16005,Co20Gd4P12,mp-1198946,GdCo5P3,"['Gd', 'Co', 'P']",36.0,-293.22696797,0.004523988138021906,0.0,
23217,Co18Gd2Si8,mp-1193590,GdCo9Si4,"['Gd', 'Co', 'Si']",28.0,-213.11409361,0.0033254400934712436,0.0,
12724,B16Co4Gd4,mp-21230,GdCoB4,"['Gd', 'Co', 'B']",24.0,-205.01730783,0.0,0.0,
17567,C2Co2Gd2,mp-20345,GdCoC,"['Gd', 'Co', 'C']",6.0,-62.45750257,0.010827984040533423,0.0,
9144,C2Co1Gd1,mp-1018146,GdCoC2,"['Gd', 'Co', 'C']",4.0,-40.92045905,0.006261999890137204,0.0,
6503,Co2Gd2Si2,mp-1077133,GdCoSi,"['Gd', 'Co', 'Si']",6.0,-57.61525614,-1.7763568394002505e-15,0.0,
24256,Co1Gd1Si3,mp-1069379,GdCoSi3,"['Gd', 'Co', 'Si']",5.0,-40.87850093,0.00510782181249958,0.0,
23421,B16Cr4Gd4,mp-1190957,GdCrB4,"['Gd', 'Cr', 'B']",24.0,-216.85660942,0.008938627275389521,0.0,
26723,Cr4Gd4Ge4O20,mp-1212488,GdCrGeO5,"['Gd', 'Cr', 'Ge', 'O']",32.0,-280.73666991,0.0,0.0,
24076,Cr4Gd4O12,mp-18331,GdCrO3,"['Gd', 'Cr', 'O']",20.0,-201.51829409,0.009962035001951364,0.0,
5237,Cr2Gd2O8,mp-22244,GdCrO4,"['Gd', 'Cr', 'O']",12.0,-110.49182576,0.004145206442057514,0.0,
10046,Cr2Gd2O12Te2,mp-1188719,GdCrTeO6,"['Gd', 'Cr', 'Te', 'O']",18.0,-146.2848353,0.004542305653211898,0.0,
26504,Cu1Gd1,mp-614455,GdCu,"['Gd', 'Cu']",2.0,-18.59790596,0.0006724167285163674,0.0,
7463,Cu4Gd2,mp-1077933,GdCu2,"['Gd', 'Cu']",6.0,-46.03584356,0.004382340626627013,0.0,
7003,Cu4Gd1Pd1,mp-1025013,GdCu4Pd,"['Gd', 'Cu', 'Pd']",6.0,-37.67718893,0.0,0.0,
9204,Cu5Gd1,mp-636253,GdCu5,"['Gd', 'Cu']",6.0,-35.60466128,0.0,0.0,
10848,As4Cu2Gd2,mp-20188,GdCuAs2,"['Gd', 'Cu', 'As']",8.0,-61.65599714,0.00524868284790081,0.0,
29911,Cu2Gd2Ge2,mp-13212,GdCuGe,"['Cu', 'Ge', 'Gd']",6.0,-49.6719615,0.0,0.0,
25159,Cu2Gd2Pb2,mp-1018705,GdCuPb,"['Gd', 'Cu', 'Pb']",6.0,-45.91355682,0.05187197429524737,0.0,
21990,Cu4Gd4S8,mp-510471,GdCuS2,"['Gd', 'Cu', 'S']",16.0,-127.99679323,0.005701346281739461,0.0,
7471,Cu2Gd2Sb4,mp-20502,GdCuSb2,"['Gd', 'Cu', 'Sb']",8.0,-58.03677474,0.0029311802661133868,0.0,
25076,Cu4Gd4Se8,mp-510528,GdCuSe2,"['Gd', 'Cu', 'Se']",16.0,-120.46028205,0.0,0.0,
26172,Cu2Gd2Si2,mp-607182,GdCuSi,"['Gd', 'Cu', 'Si']",6.0,-51.13758311,0.006892433937174758,0.0,
26651,Cu2Gd2Sn2,mp-21436,GdCuSn,"['Gd', 'Cu', 'Sn']",6.0,-47.94933791,0.005322623520507719,0.0,
10804,Co4Er1Gd1,mp-1224689,GdErCo4,"['Gd', 'Er', 'Co']",6.0,-48.33277258,0.006589153693848715,0.0,
26763,Er1Gd1In2,mp-1184762,GdErIn2,"['Gd', 'Er', 'In']",4.0,-25.96667606,0.008353634765014384,0.0,
11809,Er1Gd1Ir2,mp-1184499,GdErIr2,"['Gd', 'Er', 'Ir']",4.0,-39.59767348,0.04248251907877609,0.0,
8076,Er1Gd1Ru2,mp-1184790,GdErRu2,"['Gd', 'Er', 'Ru']",4.0,-38.47219101,0.027570550877275224,0.0,
12910,F3Gd1,mp-972965,GdF3,"['Gd', 'F']",4.0,-34.87576136,0.28192408565917937,0.0,
5859,Fe5Gd1,mp-1181137,GdFe5,"['Gd', 'Fe']",6.0,-56.65934377,0.003518572970785172,0.0,
11484,B16Fe4Gd4,mp-866656,GdFeB4,"['Gd', 'Fe', 'B']",24.0,-210.98442311,0.004993977268879846,0.0,
4753,C2Fe1Gd1,mp-1018176,GdFeC2,"['Gd', 'Fe', 'C']",4.0,-41.96657269,0.006567734482421983,0.0,
26782,Ga2Gd2,mp-20353,GdGa,"['Gd', 'Ga']",4.0,-36.73294335,0.018386171777343918,0.0,
9624,Ga2Gd1,mp-19773,GdGa2,"['Gd', 'Ga']",3.0,-22.09627711,0.0065873887076826065,0.0,
11345,Co2Ga4Gd2,mp-648086,GdGa2Co,"['Gd', 'Ga', 'Co']",8.0,-58.80506922,0.0050191566430664025,0.0,
31814,Ga6Gd2,mp-865386,GdGa3,"['Gd', 'Ga']",8.0,-50.70888408,0.004469533792724967,0.0,
22408,Ga9Gd3Ru3,mp-1104851,GdGa3Ru,"['Gd', 'Ga', 'Ru']",15.0,-106.03625838,0.005171479093750264,0.0,
26205,Ga12Gd2,mp-1104838,GdGa6,"['Gd', 'Ga']",14.0,-69.02395106,0.004021065119977685,0.0,
24679,Ga2Gd2I2,mp-1207031,GdGaI,"['Gd', 'Ga', 'I']",6.0,-43.62375554,0.005975771409505448,0.0,
3457,Ga4Gd4Pd8,mp-1106136,GdGaPd2,"['Gd', 'Ga', 'Pd']",16.0,-123.99143666,0.005060393381347339,0.0,
13127,Ga1Gd1Rh2,mp-863249,GdGaRh2,"['Gd', 'Ga', 'Rh']",4.0,-34.85106011,0.07850671203586224,0.0,
27475,Gd2Ge2,mp-19918,GdGe,"['Gd', 'Ge']",4.0,-40.8267675,0.0,0.0,
426,Gd2Ge4,mp-1072982,GdGe2,"['Gd', 'Ge']",6.0,-49.99811449,0.014705514992675361,0.0,
29952,Gd4Ge4Ir4,mp-1102413,GdGeIr,"['Gd', 'Ge', 'Ir']",12.0,-120.94538963,0.0,0.0,
27050,Gd4Ge4Pt4,mp-1103746,GdGePt,"['Gd', 'Ge', 'Pt']",12.0,-112.42140771,0.0,0.0,
22110,Gd4Ge4Rh4,mp-1095527,GdGeRh,"['Gd', 'Ge', 'Rh']",12.0,-115.60587213,0.0,0.0,
4796,Gd4Ge4Ru4,mp-19714,GdGeRu,"['Gd', 'Ge', 'Ru']",12.0,-120.27507219,1.7763568394002505e-15,0.0,
24147,Cl6Gd2H24O12,mp-23989,GdH12(ClO2)3,"['Gd', 'H', 'Cl', 'O']",44.0,-236.50880885,-9.769962616701378e-15,0.0,
4166,Gd2H36I6O18,mp-735051,GdH18(IO3)3,"['Gd', 'H', 'I', 'O']",62.0,-317.29319894,0.0,1.865174681370263e-14,
6542,Gd1H2,mp-24092,GdH2,"['Gd', 'H']",3.0,-22.84290116,0.007420814912109108,0.0,
24828,Cl2Gd2H4O4,mp-1101836,GdH2ClO2,"['Gd', 'H', 'Cl', 'O']",12.0,-89.97621866,0.008341977307942727,0.0,
30330,Gd6H18,mp-505686,GdH3,"['Gd', 'H']",24.0,-159.44030605,0.0066039471354155665,0.0,
3649,C4Gd4H4O16,mp-1224646,GdHCO4,"['Gd', 'H', 'C', 'O']",28.0,-245.87455789,0.005395759648427756,0.0,
31501,Gd2H2O4,mp-625147,GdHO2,"['Gd', 'H', 'O']",8.0,-75.48092461,0.008240121381835053,0.0,
19223,Gd4H4O20S4,mp-1197842,GdHSO5,"['Gd', 'H', 'S', 'O']",32.0,-251.8875773,0.003757998498535642,0.0,
3777,Gd1H1Se1,mp-1207092,GdHSe,"['Gd', 'H', 'Se']",3.0,-25.28370394,0.008282305847981064,0.0,
25110,F14Gd2Hf2,mp-1212387,GdHfF7,"['Gd', 'Hf', 'F']",18.0,-145.57897824,0.0048296051562424225,0.0,
7724,Gd1Hg1,mp-11422,GdHg,"['Gd', 'Hg']",2.0,-15.40117845,0.00922246246948255,0.0,
12632,Gd2Hg6,mp-1078842,GdHg3,"['Gd', 'Hg']",8.0,-32.96368585,0.003978985089111653,0.0,
17562,Gd1Ho1Ir2,mp-1184535,GdHoIr2,"['Gd', 'Ho', 'Ir']",4.0,-39.47405187,0.054483287945963355,0.0,
2627,Gd4I4O4,mp-752520,GdIO,"['Gd', 'I', 'O']",12.0,-108.79614257,0.5357494310156259,0.0,
4841,Gd1In1,mp-21005,GdIn,"['Gd', 'In']",2.0,-17.7834784,0.010612179394531296,0.0,
2936,Cl20Gd4In8,mp-1212862,GdIn2Cl5,"['Gd', 'In', 'Cl']",32.0,-165.25208312,0.003055286716308281,0.0,
25015,Gd2In4Ni18,mp-1191355,GdIn2Ni9,"['Gd', 'In', 'Ni']",24.0,-148.362003,0.0037476622636596346,-1.0658141036401503e-14,
9068,Gd2In4Rh2,mp-20444,GdIn2Rh,"['Gd', 'In', 'Rh']",8.0,-58.80422683,0.0031164941198733587,0.0,
2704,Gd1In3,mp-20258,GdIn3,"['Gd', 'In']",4.0,-23.99471924,0.0009763904089359343,0.0,
7360,Gd1In5Rh1,mp-1206181,GdIn5Rh,"['Gd', 'In', 'Rh']",7.0,-38.15357315,0.00208648690708646,0.0,
2707,Au3Gd3In3,mp-1080496,GdInAu,"['Gd', 'In', 'Au']",9.0,-66.9768187,0.0071245145616325445,0.0,
2331,Cu4Gd1In1,mp-1077293,GdInCu4,"['Gd', 'In', 'Cu']",6.0,-34.7883191,0.0034509517985021887,0.0,
16602,Gd3In3Ir3,mp-19745,GdInIr,"['Gd', 'In', 'Ir']",9.0,-83.25367787,0.007658160928817992,0.0,
18552,Gd1In1Ni4,mp-1206797,GdInNi4,"['Gd', 'In', 'Ni']",6.0,-42.16190553,0.0,0.0,
26222,Gd6In6O18,mp-1212640,GdInO3,"['Gd', 'In', 'O']",30.0,-266.15026862,0.0053292946979173195,0.0,
2813,Gd3In3Pd3,mp-20224,GdInPd,"['Gd', 'In', 'Pd']",9.0,-73.31478986,0.006012694863279933,0.0,
20527,Gd1In1Pd2,mp-624070,GdInPd2,"['Gd', 'In', 'Pd']",4.0,-30.32326747,0.006130573601073941,0.0,