,Composition,MaterialId,Reduced Formula,Elements,NSites,Corrected Energy,Decomposition Energy Per Atom All,Decomposition Energy Per Atom MP,Directory
30365,Dy1Tl2Y1,mp-979434,DyYTl2,"['Dy', 'Y', 'Tl']",4.0,-17.22732463,0.003150665467529734,0.0,
3679,Dy1Y1Zn2,mp-979712,DyYZn2,"['Dy', 'Y', 'Zn']",4.0,-15.02002042,0.0,0.0,
24208,Dy1Zn1,mp-2303,DyZn,"['Dy', 'Zn']",2.0,-6.55990694,0.0,0.0,
6132,Dy1Zn12,mp-1104551,DyZn12,"['Dy', 'Zn']",13.0,-22.1236177,0.004061878395432483,0.0,
17652,Dy2Zn4,mp-570093,DyZn2,"['Dy', 'Zn']",6.0,-16.60845948,0.004331269629719969,0.0,
12325,Dy4Zn12,mp-30626,DyZn3,"['Dy', 'Zn']",16.0,-39.3912116,0.0,0.0,
7762,Dy2Ga2Zn2,mp-1018682,DyZnGa,"['Dy', 'Zn', 'Ga']",6.0,-21.20164481,0.0006481952205401598,0.0,
12573,Dy2In2Zn2,mp-1018681,DyZnIn,"['Dy', 'Zn', 'In']",6.0,-19.82977101,0.030297920452473814,0.0,
9511,Dy3Ni3Zn3,mp-1079341,DyZnNi,"['Dy', 'Zn', 'Ni']",9.0,-39.10314864,0.00129962620876789,0.0,
30317,Dy2O2P2Zn2,mp-549728,DyZnPO,"['Dy', 'Zn', 'P', 'O']",8.0,-47.54039389,4.8294543457672034e-06,0.0,
9791,Dy3Pd3Zn3,mp-1078837,DyZnPd,"['Dy', 'Zn', 'Pd']",9.0,-39.94935235,0.003565566830784128,0.0,
22028,Dy4Rh4Zn4,mp-13379,DyZnRh,"['Dy', 'Zn', 'Rh']",12.0,-61.76842014,0.000303036632486986,0.0,
13204,Dy1Rh2Zn1,mp-865257,DyZnRh2,"['Dy', 'Zn', 'Rh']",4.0,-23.22361251,0.019507238558349904,0.0,
20041,Dy1Si1Zn1,mp-1225041,DyZnSi,"['Dy', 'Zn', 'Si']",3.0,-13.17952522,0.008153934133300567,0.0,
18487,Dy4Sn4Zn4,mp-1213053,DyZnSn,"['Dy', 'Zn', 'Sn']",12.0,-46.57369228,0.00042407066080718536,0.0,
19009,Dy2F14Zr2,mp-1212860,DyZrF7,"['Dy', 'Zr', 'F']",18.0,-122.83212948,0.0019079542361044588,-6.217248937900877e-15,
9900,Dy2Sb2Zr2,mp-5068,DyZrSb,"['Dy', 'Zr', 'Sb']",6.0,-39.36316122,0.0003968360546870997,0.0,
2967,Er3,mp-1184115,Er,['Er'],3.0,-13.70315643,0.0023025014420579026,0.0,
27894,Al8Cu4Er1,mp-1104269,Er(Al2Cu)4,"['Er', 'Al', 'Cu']",13.0,-54.82873275,0.00039663519758104115,0.0,
4916,Al8Er1Fe4,mp-3633,Er(Al2Fe)4,"['Er', 'Al', 'Fe']",13.0,-74.02084339,0.0,0.0,
24812,Al18Er2Ni6,mp-571253,Er(Al3Ni)3,"['Er', 'Al', 'Ni']",26.0,-124.8843779,5.922167593119809e-05,0.0,
28711,Al20Er2Fe4,mp-1212845,Er(Al5Fe)2,"['Er', 'Al', 'Fe']",26.0,-127.06865468,0.00032140109224787494,0.0,
6971,Al60Er6Re12,mp-1213047,Er(Al5Re)2,"['Er', 'Al', 'Re']",78.0,-428.72414021,8.881784197001252e-16,9.769962616701378e-15,
22107,Al20Er2Ru4,mp-1212826,Er(Al5Ru)2,"['Er', 'Al', 'Ru']",26.0,-134.43923029,0.0007738575360525246,-4.440892098500626e-15,
17494,Al6C6Er2,mp-1104636,Er(AlC)3,"['Er', 'Al', 'C']",14.0,-91.36564791,0.0001355836816401279,0.0,
1545,Al6Cu6Er1,mp-1225071,Er(AlCu)6,"['Er', 'Al', 'Cu']",13.0,-56.14847219,0.005757524409554904,0.0,
170,Al6Er1Fe6,mp-1225092,Er(AlFe)6,"['Er', 'Al', 'Fe']",13.0,-82.95975542,1.5222161960259939e-05,0.0,
12430,B4C4Er2,mp-10856,Er(BC)2,"['Er', 'B', 'C']",10.0,-77.17700556,0.0004940240781250438,0.0,
30096,B8Er2Ir8,mp-1189046,Er(BIr)4,"['Er', 'B', 'Ir']",18.0,-142.51600435,0.019453195221837305,0.0,
24946,B48Er16O96,mp-680718,Er(BO2)3,"['Er', 'B', 'O']",160.0,-1314.75019908,0.0,0.0,
15250,B16Er4Ru16,mp-1196250,Er(BRu)4,"['Er', 'B', 'Ru']",36.0,-291.56095508,0.00020313172960229053,7.105427357601002e-15,
26270,Cl6Er2O24,mp-29888,Er(ClO4)3,"['Er', 'Cl', 'O']",32.0,-153.41903288,0.016872736538085853,0.0,
26900,B6Co12Er1,mp-1188589,Er(Co2B)6,"['Er', 'Co', 'B']",19.0,-136.52633765,0.0,0.0,
19241,B2Co2Er1,mp-568509,Er(CoB)2,"['Er', 'Co', 'B']",5.0,-35.04195588,0.0009822981210927395,0.0,
18631,B8Co8Er2,mp-1189246,Er(CoB)4,"['Er', 'Co', 'B']",18.0,-128.75287564,0.0003403914192707802,0.0,
21584,Co2Er1Ge2,mp-5497,Er(CoGe)2,"['Er', 'Co', 'Ge']",5.0,-31.05212574,0.0,0.0,
8078,Co2Er1Si2,mp-3239,Er(CoSi)2,"['Er', 'Co', 'Si']",5.0,-33.80883104,0.0,0.0,
23413,Cu4Er2O8,mp-15186,Er(CuO2)2,"['Er', 'Cu', 'O']",14.0,-88.90840283,1.9134666573883408e-05,0.0,
19791,Cu6Er2S6,mp-1225120,Er(CuS)3,"['Er', 'Cu', 'S']",14.0,-70.4369303,4.440892098500626e-15,0.0,
24982,Cu2Er1Si2,mp-4305,Er(CuSi)2,"['Er', 'Cu', 'Si']",5.0,-26.52132453,0.0,0.0,
5130,Cu12Er4Te12,mp-2717767,Er(CuTe)3,"['Er', 'Cu', 'Te']",28.0,-120.12158437,0.0,0.0,
31515,B2Er1Fe2,mp-3190,Er(FeB)2,"['Er', 'Fe', 'B']",5.0,-37.12179005,0.0085753395085586,0.0,
12512,Er1Fe2Ge2,mp-5451,Er(FeGe)2,"['Er', 'Fe', 'Ge']",5.0,-32.99591036,0.0,0.0,
30338,Er3Fe18Ge18,mp-1202201,Er(FeGe)6,"['Er', 'Fe', 'Ge']",39.0,-260.26338783,0.0,0.0,
4243,Er1Fe2Si2,mp-5688,Er(FeSi)2,"['Er', 'Fe', 'Si']",5.0,-35.75637616,0.0008895690253902799,0.0,
14720,Er4Fe24Sn24,mp-31197,Er(FeSn)6,"['Er', 'Fe', 'Sn']",52.0,-325.23300413,0.0,0.0,
22055,Er1Fe6Ga6,mp-1104959,Er(GaFe)6,"['Er', 'Ga', 'Fe']",13.0,-77.76138004,0.0001428430393621838,0.0,
22280,Er1Ge2Ru2,mp-571296,Er(GeRu)2,"['Er', 'Ge', 'Ru']",5.0,-35.54497713,0.0,0.0,
18972,Er4I12O36,mp-23552,Er(IO3)3,"['Er', 'I', 'O']",52.0,-267.4644094,0.00015086058442470573,0.0,
21818,Al8Er1Mn4,mp-1104101,Er(MnAl2)4,"['Er', 'Mn', 'Al']",13.0,-75.62845384,0.00037753664663409126,0.0,
4683,Er1Mn2Si2,mp-4729,Er(MnSi)2,"['Er', 'Mn', 'Si']",5.0,-36.91394658,0.0,0.0,
23762,Er1Mn6Sn6,mp-1103936,Er(MnSn)6,"['Er', 'Mn', 'Sn']",13.0,-85.3745346,0.004971400230157741,0.0,
8531,Er4N12O36,mp-1197536,Er(NO3)3,"['Er', 'N', 'O']",52.0,-347.33889408,0.0012106926472359447,0.0,
7070,As4Er2Ni8,mp-510482,Er(Ni2As)2,"['Er', 'Ni', 'As']",14.0,-82.79005526,0.0005972055496643591,0.0,
24841,Er2Ni8P4,mp-1105062,Er(Ni2P)2,"['Er', 'Ni', 'P']",14.0,-88.74503431,0.0002860275920761879,0.0,
3722,B4Er2Ni4,mp-1079335,Er(NiB)2,"['Er', 'Ni', 'B']",10.0,-64.68168473,4.618527782440651e-14,4.618527782440651e-14,
16477,Er1Ge2Ni2,mp-4865,Er(NiGe)2,"['Er', 'Ni', 'Ge']",5.0,-28.75236626,0.0,0.0,
4515,Er1Ni2P2,mp-3455,Er(NiP)2,"['Er', 'Ni', 'P']",5.0,-31.9845693,0.0008526347509771881,0.0,
29156,Er4O36P12,mp-27939,Er(PO3)3,"['Er', 'P', 'O']",52.0,-393.97127277,0.0010693816391231792,0.0,
24553,Er1P2Ru2,mp-12058,Er(PRu)2,"['Er', 'P', 'Ru']",5.0,-39.10041469,3.552713678800501e-15,3.552713678800501e-15,
22707,Er2O24Re6,mp-772838,Er(ReO4)3,"['Er', 'Re', 'O']",32.0,-263.38950651,0.08067022960693393,0.0,
10572,Er1Ir2Si2,mp-3907,Er(SiIr)2,"['Er', 'Si', 'Ir']",5.0,-38.52190968,0.0,0.0,
5526,Er1Ni2Si2,mp-4881,Er(SiNi)2,"['Er', 'Si', 'Ni']",5.0,-31.2544206,0.0010311998242205078,0.0,
23854,Er2Ni20Si4,mp-21548,Er(SiNi5)2,"['Er', 'Si', 'Ni']",26.0,-158.05518246,0.003601000742655458,0.0,
1740,Er1Os2Si2,mp-3958,Er(SiOs)2,"['Er', 'Si', 'Os']",5.0,-41.46428592,0.0010614256191399107,0.0,
27656,Er1Pd2Si2,mp-3218,Er(SiPd)2,"['Er', 'Si', 'Pd']",5.0,-30.43465161,0.0,0.0,
4500,Er2Pt4Si4,mp-1079518,Er(SiPt)2,"['Er', 'Si', 'Pt']",10.0,-65.77246933,0.0,0.0,
9931,Er1Rh2Si2,mp-5386,Er(SiRh)2,"['Er', 'Si', 'Rh']",5.0,-35.71954824,0.0,0.0,
23262,Er1Ru2Si2,mp-5022,Er(SiRu)2,"['Er', 'Si', 'Ru']",5.0,-38.52299424,0.0007710616679688087,0.0,
30926,Er1Ga4V2,mp-11436,Er(VGa2)2,"['Er', 'V', 'Ga']",7.0,-37.6905899,0.00010245255301377654,0.0,
10522,Er2P6Zn6,mp-1212805,Er(ZnP)3,"['Er', 'Zn', 'P']",14.0,-57.58776899,3.552713678800501e-15,3.552713678800501e-15,
19633,Er20In40Ni18,mp-1199385,Er10In20Ni9,"['Er', 'In', 'Ni']",78.0,-338.14041404,0.002176837394988418,0.0,
7157,C18Er10Mn13,mp-1198824,Er10Mn13C18,"['Er', 'Mn', 'C']",41.0,-344.59219973,0.0004903648170735408,0.0,
28906,Er20Ni2Sb10,mp-1225477,Er10NiSb5,"['Er', 'Ni', 'Sb']",32.0,-169.78068716,0.004551299229736294,0.0,
19942,C19Er10Ru10,mp-28472,Er10Ru10C19,"['Er', 'Ru', 'C']",39.0,-324.00390089,0.00412471368604983,0.0,
20300,Er40O84W8,mp-554807,Er10W2O21,"['Er', 'W', 'O']",132.0,-1092.49097271,0.014999402059064693,0.0,
23737,Er22In12Si8,mp-1200148,Er11(In3Si2)2,"['Er', 'In', 'Si']",42.0,-201.61779511,0.0005106708603053178,0.0,
15620,Cd90Er22,mp-1204723,Er11Cd45,"['Er', 'Cd']",112.0,-207.06552344,0.0,0.0,
29192,Er22Sn20,mp-1196703,Er11Sn10,"['Er', 'Sn']",42.0,-210.29970411,0.00017133129556423654,0.0,
27516,C15Er12Mn5,mp-1213203,Er12(MnC3)5,"['Er', 'Mn', 'C']",32.0,-251.01609305,0.0021907452941967165,0.0,
16615,Bi1Co5Er12,mp-1212883,Er12Co5Bi,"['Er', 'Co', 'Bi']",18.0,-99.72910189,0.0004565586827256496,0.0,
9804,Co14Er24,mp-30970,Er12Co7,"['Er', 'Co']",38.0,-217.17219386,0.005370148049487433,-8.881784197001252e-16,
22674,Er12Fe2In3,mp-1212895,Er12In3Fe2,"['Er', 'In', 'Fe']",17.0,-83.68349044,0.010409921213673456,0.0,
22891,Er26Zn116,mp-1203997,Er13Zn58,"['Er', 'Zn']",142.0,-309.80997331,0.0,0.0,
8094,Er56In12Pd12,mp-571580,Er14(InPd)3,"['Er', 'In', 'Pd']",80.0,-389.15551007,0.0011254295449223406,0.0,
4241,Ag51Er14,mp-1225453,Er14Ag51,"['Er', 'Ag']",65.0,-223.70295752,0.007029439713528873,0.0,
19868,C2Er30Si18,mp-1196963,Er15Si9C,"['Er', 'Si', 'C']",50.0,-288.22404265,0.0018228579374985898,-8.881784197001252e-16,
21888,Al18Er4Rh6,mp-1212861,Er2(Al3Rh)3,"['Er', 'Al', 'Rh']",28.0,-152.98718538,0.0,0.0,
3844,B6Er2Rh9,mp-1225103,Er2(B2Rh3)3,"['Er', 'B', 'Rh']",17.0,-126.24483265,0.0,0.0,
8181,Co6Er4Ga18,mp-866685,Er2(Ga3Co)3,"['Er', 'Ga', 'Co']",28.0,-128.89877666,0.0004636343875557003,0.0,
5238,Er4Ga18Ir6,mp-1212874,Er2(Ga3Ir)3,"['Er', 'Ga', 'Ir']",28.0,-144.26230015,8.76821079787149e-05,0.0,
6450,Er4Ga18Rh6,mp-1213067,Er2(Ga3Rh)3,"['Er', 'Ga', 'Rh']",28.0,-136.50841225,1.7763568394002505e-15,-8.881784197001252e-16,
29180,Er4Ga18Ru6,mp-1212887,Er2(Ga3Ru)3,"['Er', 'Ga', 'Ru']",28.0,-143.23200234,0.005624972559112429,0.0,
17655,B40Er16Ni80,mp-1197355,Er2(Ni2B)5,"['Er', 'Ni', 'B']",136.0,-867.53788444,0.0,0.0,
28885,B36Er8Ni60,mp-1199522,Er2(Ni5B3)3,"['Er', 'Ni', 'B']",104.0,-667.58176162,0.00238434156356071,5.329070518200751e-15,
2361,B6Er2Ni3,mp-4071,Er2(NiB2)3,"['Er', 'Ni', 'B']",11.0,-73.0041768,0.0,0.0,
8638,Er8O48S12,mp-9841,Er2(SO4)3,"['Er', 'S', 'O']",68.0,-472.31061045,0.0,0.0,
18038,Er4O18Se6,mp-31352,Er2(SeO3)3,"['Er', 'Se', 'O']",28.0,-181.8031202,0.0,0.0,
4548,C1Er20Si12,mp-1225168,Er20Si12C,"['Er', 'Si', 'C']",33.0,-188.69759495,0.0011052992187501332,0.0,
9444,Er42In8Rh20,mp-1213466,Er21(In2Rh5)2,"['Er', 'In', 'Rh']",70.0,-411.42255806,0.0,0.0,
7785,Er25Ni49P33,mp-1213669,Er25Ni49P33,"['Er', 'Ni', 'P']",107.0,-686.29742291,0.0,0.0,
15279,Ag1Er2Ru1,mp-862978,Er2AgRu,"['Er', 'Ag', 'Ru']",4.0,-22.82752467,0.06395518580199955,0.0,
8823,Al4Er8,mp-1102875,Er2Al,"['Er', 'Al']",12.0,-55.04219767,0.0010754693334957821,0.0,
23756,Al6Co2Er4,mp-567849,Er2Al3Co,"['Er', 'Al', 'Co']",12.0,-60.87453378,0.014384247799361205,0.0,
10789,Al3Er2Si2,mp-12004,Er2Al3Si2,"['Er', 'Al', 'Si']",7.0,-34.97975928,0.00143183642996636,0.0,
16017,Al4Co1Er2Ge2,mp-1205974,Er2Al4CoGe2,"['Er', 'Al', 'Co', 'Ge']",9.0,-46.18288258,4.440892098500626e-15,4.440892098500626e-15,
18074,Al4Er2Ge2Ni1,mp-1205834,Er2Al4NiGe2,"['Er', 'Al', 'Ni', 'Ge']",9.0,-44.71504499,0.0,0.0,
12354,Al1Er2Ni2,mp-1068244,Er2AlNi2,"['Er', 'Al', 'Ni']",5.0,-27.3064491,0.0013021142041020894,0.0,
27257,Al1Er2Si2,mp-10529,Er2AlSi2,"['Er', 'Al', 'Si']",5.0,-27.312157,-9.769962616701378e-15,0.0,
17086,As7Er2Rh12,mp-1225165,Er2As7Rh12,"['Er', 'As', 'Rh']",21.0,-144.47425517,0.004917299673084408,0.0,
19894,Au4Er8,mp-1102972,Er2Au,"['Er', 'Au']",12.0,-57.45226523,0.0021179146915688563,0.0,
26775,Au10Er4F42,mp-541347,Er2Au5F21,"['Er', 'Au', 'F']",56.0,-236.76345355,7.568472377172952e-05,0.0,
21851,B8Cl8Er8O20,mp-556986,Er2B2Cl2O5,"['Er', 'B', 'Cl', 'O']",44.0,-329.05725752,4.195878899437844e-06,0.0,
23070,B4C1Er2,mp-1025246,Er2B4C,"['Er', 'B', 'C']",7.0,-49.20500635,0.0005949921665804325,0.0,
22736,B24Er8Os4,mp-1198965,Er2B6Os,"['Er', 'B', 'Os']",36.0,-266.52423841,0.00029310080729061383,0.0,
13803,B24Er8Rh4,mp-1212905,Er2B6Rh,"['Er', 'B', 'Rh']",36.0,-250.02499131,0.0,0.0,
4579,B24Er8Ru4,mp-1198465,Er2B6Ru,"['Er', 'B', 'Ru']",36.0,-259.39188046,0.00018129228949703702,0.0,
26751,B1Er2Pd6,mp-1225046,Er2BPd6,"['Er', 'B', 'Pd']",9.0,-54.32266459,0.045130587140820744,0.0,
3205,B1Er2Pt6,mp-1225050,Er2BPt6,"['Er', 'B', 'Pt']",9.0,-60.80301114,0.06391374703124963,0.0,
27986,Bi1Er2O2,mp-1069613,Er2BiO2,"['Er', 'Bi', 'O']",5.0,-36.48268275,0.0,0.0,
4478,C1Er2,mp-1225044,Er2C,"['Er', 'C']",3.0,-19.32243129,0.0014026284716797122,0.0,
21664,C1Er2N2O2,mp-6574,Er2C(NO)2,"['Er', 'C', 'N', 'O']",7.0,-60.42551749,0.0,0.0,
16265,Cd2Cu4Er4,mp-1206454,Er2CdCu2,"['Er', 'Cd', 'Cu']",10.0,-39.52701003,0.010372345999025256,1.7763568394002505e-15,
6683,Cd2Er4Ge4,mp-1079052,Er2CdGe2,"['Er', 'Cd', 'Ge']",10.0,-45.57881458,0.0,0.0,
11745,Cd1Er2In1,mp-862981,Er2CdIn,"['Er', 'Cd', 'In']",4.0,-14.36649047,0.0,0.0,
6451,Cd2Er4Pd4,mp-1205644,Er2CdPd2,"['Er', 'Cd', 'Pd']",10.0,-49.02259403,0.0039505426787149744,0.0,
12516,Cd2Er4S8,mp-3041,Er2CdS4,"['Er', 'Cd', 'S']",14.0,-76.60293239,5.8407254455161706e-06,0.0,
5548,Co12Er2P7,mp-7788,Er2Co12P7,"['Er', 'Co', 'P']",21.0,-149.33253968,0.0026648781415081757,0.0,
22624,Co34Er4,mp-2531,Er2Co17,"['Er', 'Co']",38.0,-264.00406372,0.0,0.0,
23799,Co6Er4Ge10,mp-1006352,Er2Co3Ge5,"['Er', 'Co', 'Ge']",20.0,-118.60395943,0.0,0.0,
28901,Co6Er4Si10,mp-1190062,Er2Co3Si5,"['Er', 'Co', 'Si']",20.0,-130.53740374,0.0018747470820370538,0.0,
18704,Co2Er4Ge4,mp-1095140,Er2CoGe2,"['Er', 'Co', 'Ge']",10.0,-58.50800933,0.0,0.0,
4719,C3Cr2Er2,mp-1078190,Er2Cr2C3,"['Er', 'Cr', 'C']",7.0,-58.41751523,0.0,0.0,
20059,Cr2Er4O14Sb2,mp-1225159,Er2CrSbO7,"['Er', 'Cr', 'Sb', 'O']",22.0,-168.79776942,0.0001693776154123583,-1.4210854715202004e-14,
14559,Cu1Er2Ni1,mp-1225072,Er2CuNi,"['Er', 'Cu', 'Ni']",4.0,-20.57147308,0.0018875703015135414,0.0,
13455,Cu1Er2Os1,mp-866100,Er2CuOs,"['Er', 'Cu', 'Os']",4.0,-25.70207863,0.0018593148714183272,0.0,
29361,Cu1Er2Pd1,mp-1184092,Er2CuPd,"['Er', 'Cu', 'Pd']",4.0,-20.8371274,0.015677046636963787,0.0,
13039,Cu1Er2Ru1,mp-862944,Er2CuRu,"['Er', 'Cu', 'Ru']",4.0,-24.05161486,0.0,0.0,
21577,Cu1Er2Si3,mp-1225070,Er2CuSi3,"['Er', 'Cu', 'Si']",6.0,-33.64138261,0.023700758033854186,0.0,
25784,Er2Fe12P7,mp-1190642,Er2Fe12P7,"['Er', 'Fe', 'P']",21.0,-163.83276769,1.7763568394002505e-15,0.0,
7832,B4Er8Fe56,mp-3680,Er2Fe14B,"['Er', 'Fe', 'B']",68.0,-545.57720079,7.731920726072872e-05,0.0,
5702,C4Er8Fe56,mp-567623,Er2Fe14C,"['Er', 'Fe', 'C']",68.0,-553.2471287,6.645954734985082e-05,0.0,
21384,C1Er2Fe2Si2,mp-1025354,Er2Fe2Si2C,"['Er', 'Fe', 'Si', 'C']",7.0,-51.0578625,0.0,0.0,
7466,Er8Fe12Si20,mp-680269,Er2Fe3Si5,"['Er', 'Fe', 'Si']",40.0,-274.60510125,8.972338867163643e-05,0.0,
29682,Co6Er2Fe6P7,mp-1225690,Er2Fe6Co6P7,"['Er', 'Fe', 'Co', 'P']",21.0,-157.11263326,0.008918253585076918,0.0,
18261,C8Er4Fe2,mp-9977,Er2FeC4,"['Er', 'Fe', 'C']",14.0,-113.35950705,0.00017367332589124373,0.0,
22135,Er4Fe2Si4,mp-31095,Er2FeSi2,"['Er', 'Fe', 'Si']",10.0,-64.10887822,0.00011944728710933106,0.0,
10950,Er4Ga20Os6,mp-647247,Er2Ga10Os3,"['Er', 'Ga', 'Os']",30.0,-158.69660962,0.00015563555078124125,0.0,
9526,Co4Er8Ga12,mp-1212964,Er2Ga3Co,"['Er', 'Ga', 'Co']",24.0,-115.1717126,0.016889692312817672,-1.7763568394002505e-15,
2811,Cu1Er2Ga3,mp-1225597,Er2Ga3Cu,"['Er', 'Ga', 'Cu']",6.0,-25.87271022,0.0,0.0,
17140,Co2Er2Ga1,mp-1207017,Er2GaCo2,"['Er', 'Ga', 'Co']",5.0,-28.58462935,0.00015062230957063605,0.0,
7208,Er2Ga1Ni2,mp-1207042,Er2GaNi2,"['Er', 'Ga', 'Ni']",5.0,-26.70747701,0.0010316060566397667,0.0,
10942,Er4Ge4Ru2,mp-1205564,Er2Ge2Ru,"['Er', 'Ge', 'Ru']",10.0,-63.3252818,0.0,0.0,
6153,Er4Ge10Rh6,mp-984743,Er2Ge5Rh3,"['Er', 'Ge', 'Rh']",20.0,-123.88847113,2.6645352591003757e-15,2.6645352591003757e-15,
24608,Er4Ge10Ru6,mp-1188138,Er2Ge5Ru3,"['Er', 'Ge', 'Ru']",20.0,-132.62253962,0.0,0.0,
28266,Er2Ge1Rh3,mp-1076961,Er2GeRh3,"['Er', 'Ge', 'Rh']",6.0,-41.34439397,0.0,0.0,
4337,Er4In2,mp-877,Er2In,"['Er', 'In']",6.0,-25.83095507,0.00402044558837833,0.0,
11359,Ag1Er2In1,mp-866004,Er2InAg,"['Er', 'In', 'Ag']",4.0,-16.31273941,0.003426065532226019,0.0,
3241,Au4Er4In2,mp-1079059,Er2InAu2,"['Er', 'In', 'Au']",10.0,-45.0395187,0.0006589545849609024,0.0,
200,Cu4Er4In2,mp-1078738,Er2InCu2,"['Er', 'In', 'Cu']",10.0,-44.09395896,0.006489266353515433,0.0,
6855,Er2In1Ni2,mp-1067986,Er2InNi2,"['Er', 'In', 'Ni']",5.0,-26.16605277,0.0017290211953122636,0.0,
15059,Er4In2Pd4,mp-12689,Er2InPd2,"['Er', 'In', 'Pd']",10.0,-53.3257386,9.769962616701378e-15,0.0,
9036,Er2Ir1Pd1,mp-861984,Er2IrPd,"['Er', 'Ir', 'Pd']",4.0,-27.00773743,0.0,0.0,
12582,Er2Ir1Rh1,mp-861985,Er2IrRh,"['Er', 'Ir', 'Rh']",4.0,-29.10928725,0.0,0.0,
24628,Er2Ir1Ru1,mp-867214,Er2IrRu,"['Er', 'Ir', 'Ru']",4.0,-29.99354509,0.0,0.0,
2005,Er2Mg2Ru1,mp-1070135,Er2Mg2Ru,"['Er', 'Mg', 'Ru']",5.0,-23.11254563,0.0,0.0,
22836,Cu4Er4Mg2,mp-1205745,Er2MgCu2,"['Er', 'Mg', 'Cu']",10.0,-40.27298218,0.0,0.0,
21472,Er2In1Mg1,mp-863702,Er2MgIn,"['Er', 'Mg', 'In']",4.0,-14.67455048,0.0,0.0,
893,Er4Mg2Ni4,mp-1205516,Er2MgNi2,"['Er', 'Mg', 'Ni']",10.0,-48.58445565,0.0,0.0,
14245,Er4Ge8Mn2O24,mp-1225782,Er2Mn(GeO3)4,"['Er', 'Mn', 'Ge', 'O']",38.0,-274.12805931,0.0,0.0,
24538,Er2Mn12P7,mp-1191019,Er2Mn12P7,"['Er', 'Mn', 'P']",21.0,-172.00293632,0.0004000457273054536,0.0,
15310,Er4Mn4O14,mp-19256,Er2Mn2O7,"['Er', 'Mn', 'O']",22.0,-172.0463034,2.3595898436923335e-05,0.0,
8254,Er8Mn12Si20,mp-622190,Er2Mn3Si5,"['Er', 'Mn', 'Si']",40.0,-280.14958668,0.00033714574414656084,6.217248937900877e-15,
18315,C3Er2Mo2,mp-3776,Er2Mo2C3,"['Er', 'Mo', 'C']",7.0,-61.15227246,0.00036168139090442253,0.0,
5126,Er4Mo8O30,mp-1212977,Er2Mo4O15,"['Er', 'Mo', 'O']",42.0,-313.26658955,0.0,0.0,
14701,Er8Mo4O24,mp-31122,Er2MoO6,"['Er', 'Mo', 'O']",36.0,-284.5697226,0.0,0.0,
8382,As7Er2Ni12,mp-542718,Er2Ni12As7,"['Er', 'Ni', 'As']",21.0,-122.24260519,0.001169568937881671,1.0658141036401503e-14,
17764,Er2Ni12P7,mp-540772,Er2Ni12P7,"['Er', 'Ni', 'P']",21.0,-132.60676205,0.00046011954985214487,0.0,
12339,Er4Ni4Sn2,mp-1080713,Er2Ni2Sn,"['Er', 'Ni', 'Sn']",10.0,-55.49846488,0.01409508609667931,0.0,
2725,Er4Ni14,mp-1188219,Er2Ni7,"['Er', 'Ni']",18.0,-106.56563034,0.00014991763452698592,-2.1316282072803006e-14,
860,Er2Ni1Ru1,mp-862615,Er2NiRu,"['Er', 'Ni', 'Ru']",4.0,-25.99387409,-2.6645352591003757e-15,0.0,
19972,Er16O24,mp-679,Er2O3,"['Er', 'O']",40.0,-337.63032896,0.0,0.0,
8773,C8Er8Os4,mp-1213006,Er2OsC2,"['Er', 'Os', 'C']",20.0,-163.44317139,0.0,0.0,
26398,Er2P7Rh12,mp-1225638,Er2P7Rh12,"['Er', 'P', 'Rh']",21.0,-154.73946607,0.008412450132682991,0.0,
1865,Er16Pb8S32,mp-1225956,Er2PbS4,"['Er', 'Pb', 'S']",56.0,-326.46601168,0.009292466991835724,0.0,
248,Er4Pb2Pd4,mp-31090,Er2Pd2Pb,"['Er', 'Pd', 'Pb']",10.0,-54.86970704,0.002525527079101586,0.0,
10599,Er2Pd1Ru1,mp-866281,Er2PdRu,"['Er', 'Pd', 'Ru']",4.0,-26.41149236,0.0012246339608701362,0.0,
15070,Er8Pt4,mp-30610,Er2Pt,"['Er', 'Pt']",12.0,-72.52222543,0.0,0.0,
3805,Er4O14Pt4,mp-756440,Er2Pt2O7,"['Er', 'Pt', 'O']",22.0,-156.72527495,0.0,0.0,
23113,C1Er2Re2Si2,mp-1025362,Er2Re2Si2C,"['Er', 'Re', 'Si', 'C']",7.0,-58.43205079,0.0012517251729917689,0.0,
19162,Er8Re12Si20,mp-1204807,Er2Re3Si5,"['Er', 'Re', 'Si']",40.0,-317.89187911,3.552713678800501e-15,3.552713678800501e-15,
4583,B24Er8Re4,mp-1201657,Er2ReB6,"['Er', 'Re', 'B']",36.0,-270.42444352,7.44584288190353e-05,0.0,
16584,C8Er8Re4,mp-20799,Er2ReC2,"['Er', 'Re', 'C']",20.0,-169.12011869,0.0,0.0,
8064,Er2Pt1Ru1,mp-1184144,Er2RuPt,"['Er', 'Ru', 'Pt']",4.0,-27.86970374,0.014005517296375558,0.0,
6327,Er2Rh1Ru1,mp-863666,Er2RuRh,"['Er', 'Ru', 'Rh']",4.0,-28.53369705,0.0,0.0,
12206,Er12S18,mp-2234,Er2S3,"['Er', 'S']",30.0,-191.20925759,0.01491223682747389,0.0,
22138,Er2O2S1,mp-12671,Er2SO2,"['Er', 'S', 'O']",5.0,-39.33223852,0.0,-1.7763568394002505e-15,
25005,Er2O2Sb1,mp-1225518,Er2SbO2,"['Er', 'Sb', 'O']",5.0,-36.84963699,0.003067975535155476,0.0,
13932,Er8Sc12Si16,mp-1212960,Er2Sc3Si4,"['Er', 'Sc', 'Si']",36.0,-229.13031315,0.00043008312716974473,0.0,
20766,Er8Se12,mp-209,Er2Se3,"['Er', 'Se']",20.0,-115.98456329,0.0012987184345707448,0.0,
9075,Er2O2Se1,mp-13975,Er2SeO2,"['Er', 'Se', 'O']",5.0,-38.21950215,0.0,0.0,
10979,Er2O7Si2,mp-7064,Er2Si2O7,"['Er', 'Si', 'O']",11.0,-90.52013769,0.0,7.105427357601002e-15,
3249,Er8Pd4Si12,mp-1212897,Er2Si3Pd,"['Er', 'Si', 'Pd']",24.0,-143.34574452,0.007183257508136975,0.0,
10993,Er8Rh4Si12,mp-4289,Er2Si3Rh,"['Er', 'Si', 'Rh']",24.0,-153.3347215,2.650691731798105e-05,0.0,
8156,C4Er8N24Si16,mp-1212966,Er2Si4CN6,"['Er', 'Si', 'C', 'N']",52.0,-423.68178776,0.00016797971303361692,0.0,