,Composition,MaterialId,Reduced Formula,Elements,NSites,Corrected Energy,Decomposition Energy Per Atom All,Decomposition Energy Per Atom MP,Directory
25919,Ba4C6F2La2O18,mp-18111,Ba2LaC3O9F,"['Ba', 'La', 'C', 'O', 'F']",32.0,-243.99879091,0.0,0.0,
9216,Ba2Ir1La1O6,mp-15889,Ba2LaIrO6,"['Ba', 'La', 'Ir', 'O']",10.0,-70.29669428,5.3290705182007514e-14,0.0,
26621,Ba2La1Nb1O6,mp-553281,Ba2LaNbO6,"['Ba', 'La', 'Nb', 'O']",10.0,-78.32083973,0.00018624184374971264,0.0,
12118,Ba2La1O6Pa1,mp-1205623,Ba2LaPaO6,"['Ba', 'La', 'Pa', 'O']",10.0,-80.39873908,0.057915258259766844,0.0,
15850,Ba2La1O6Pu1,mp-1207161,Ba2LaPuO6,"['Ba', 'La', 'Pu', 'O']",10.0,-82.6112664,0.03980736268556129,0.0,
14492,Ba2La1O6Ru1,mp-12911,Ba2LaRuO6,"['Ba', 'La', 'Ru', 'O']",10.0,-71.41834182,1.7677070047739107e-06,0.0,
6265,Ba2La1O6Sb1,mp-551269,Ba2LaSbO6,"['Ba', 'La', 'Sb', 'O']",10.0,-68.78778369,0.00015322279687524087,0.0,
10919,Ba2Cu2La1O8Ta1,mp-615682,Ba2LaTa(CuO4)2,"['Ba', 'La', 'Ta', 'Cu', 'O']",14.0,-101.80608044,-3.552713678800501e-15,7.105427357601002e-15,
5674,Ba2La1O6Ta1,mp-13055,Ba2LaTaO6,"['Ba', 'La', 'Ta', 'O']",10.0,-81.27326634,4.32207363267878e-05,0.0,
29913,Ba2La1O6U1,mp-1205700,Ba2LaUO6,"['Ba', 'La', 'U', 'O']",10.0,-81.30740125,0.05720635937499985,-3.019806626980426e-14,
9742,B10Ba4Li2O20,mp-6075,Ba2Li(BO2)5,"['Ba', 'Li', 'B', 'O']",36.0,-272.67194805,0.002969772591145059,0.0,
14875,Ba4Li6N8Ta2,mp-573677,Ba2Li3TaN4,"['Ba', 'Li', 'Ta', 'N']",20.0,-126.41641065,0.008738055146483958,0.0,
718,Al4Ba8C16Li4N32,mp-1197768,Ba2LiAl(CN2)4,"['Ba', 'Li', 'Al', 'C', 'N']",64.0,-496.63196313,0.00025267417724617047,0.0,
8780,Ba8Ge12Li4,mp-17491,Ba2LiGe3,"['Ba', 'Li', 'Ge']",24.0,-92.01220671,0.0,0.0,
6279,Ba2I1Li1O6,mp-1207120,Ba2LiIO6,"['Ba', 'Li', 'I', 'O']",10.0,-55.18848473,0.0012074626689457801,0.0,
22652,Ba2Li1O6Os1,mp-10584,Ba2LiOsO6,"['Ba', 'Li', 'Os', 'O']",10.0,-66.96012944,0.001643470794919999,6.217248937900877e-15,
16026,Ba4Li2N8Re2,mp-10555,Ba2LiReN4,"['Ba', 'Li', 'Re', 'N']",16.0,-115.62196515,0.005372451715087934,0.0,
16374,Ba2Li1O6Re1,mp-6270,Ba2LiReO6,"['Ba', 'Li', 'Re', 'O']",10.0,-71.17696314,0.0015985895644528014,0.0,
29268,Ba8Li4Si12,mp-15521,Ba2LiSi3,"['Ba', 'Li', 'Si']",24.0,-98.40441056,0.0013540404890957092,0.0,
16801,Ba2Li1O6Te1,mp-1214633,Ba2LiTeO6,"['Ba', 'Li', 'Te', 'O']",10.0,-58.28422338,0.0014488137333987794,0.0,
27712,B4Ba4Cl2Lu2O12,mp-1228639,Ba2LuB2ClO6,"['Ba', 'Lu', 'B', 'Cl', 'O']",24.0,-177.16284526,0.003239810333657722,0.0,
25120,Ba2Bi1Lu1O6,mp-1078394,Ba2LuBiO6,"['Ba', 'Lu', 'Bi', 'O']",10.0,-66.45871263,0.0,0.0,
11415,Ba2Ir1Lu1O6,mp-22594,Ba2LuIrO6,"['Ba', 'Lu', 'Ir', 'O']",10.0,-70.93078721,0.0,0.0,
25826,Ba2Lu1Mo1O6,mp-1205836,Ba2LuMoO6,"['Ba', 'Lu', 'Mo', 'O']",10.0,-72.38121583,0.038588677009766315,0.0,
15588,Ba2Lu1Nb1O6,mp-12644,Ba2LuNbO6,"['Ba', 'Lu', 'Nb', 'O']",10.0,-79.08944276,0.00036832775976591847,0.0,
11263,Ba2Lu1O6Re1,mp-1214813,Ba2LuReO6,"['Ba', 'Lu', 'Re', 'O']",10.0,-77.20258843,0.0005077707695306799,0.0,
6901,Ba2Lu1O6Ru1,mp-6145,Ba2LuRuO6,"['Ba', 'Lu', 'Ru', 'O']",10.0,-72.07708672,0.00014595446484477748,0.0,
10883,Ba2Lu1O6Sb1,mp-1078185,Ba2LuSbO6,"['Ba', 'Lu', 'Sb', 'O']",10.0,-69.33966232,1.1441339843543119e-05,0.0,
3098,Ba2Lu1O6Ta1,mp-1079705,Ba2LuTaO6,"['Ba', 'Lu', 'Ta', 'O']",10.0,-82.05642176,6.55388437493798e-05,0.0,
28522,Ba2Lu1O6U1,mp-1206047,Ba2LuUO6,"['Ba', 'Lu', 'U', 'O']",10.0,-82.20966069,0.014709907562497904,0.0,
10420,B2Ba2Mg1O6,mp-9259,Ba2Mg(BO3)2,"['Ba', 'Mg', 'B', 'O']",11.0,-78.79047125,0.0,0.0,
23414,Ba8Mg4O32P8,mp-14558,Ba2Mg(PO4)2,"['Ba', 'Mg', 'P', 'O']",52.0,-369.54547097,7.105427357601002e-15,7.105427357601002e-15,
22170,Ba2Mg1Mo1O6,mp-1205825,Ba2MgMoO6,"['Ba', 'Mg', 'Mo', 'O']",10.0,-67.00441029,0.0,0.0,
23213,Ba2Mg1O6Os1,mp-1206133,Ba2MgOsO6,"['Ba', 'Mg', 'Os', 'O']",10.0,-68.26029766,0.0,0.0,
24625,Ba2Mg1O6Re1,mp-22441,Ba2MgReO6,"['Ba', 'Mg', 'Re', 'O']",10.0,-71.84911432,0.0,0.0,
9162,Ba4Mg2O14Si4,mp-9338,Ba2MgSi2O7,"['Ba', 'Mg', 'Si', 'O']",24.0,-173.01909954,1.3322676295501878e-14,0.0,
18056,Ba2Mg1Tl1,mp-1183219,Ba2MgTl,"['Ba', 'Mg', 'Tl']",4.0,-8.78573463,0.002211718126552409,0.0,
7059,Ba2Mg1O6U1,mp-13811,Ba2MgUO6,"['Ba', 'Mg', 'U', 'O']",10.0,-76.89804258,0.0,0.0,
31789,Ba2Mg1O6W1,mp-18986,Ba2MgWO6,"['Ba', 'Mg', 'W', 'O']",10.0,-69.08655895,0.0,0.0,
27706,As8Ba8Mn4O32,mp-558651,Ba2Mn(AsO4)2,"['Ba', 'Mn', 'As', 'O']",52.0,-346.83130896,2.984853816112576e-05,0.0,
25886,B24Ba8Mn4O48,mp-18990,Ba2Mn(BO2)6,"['Ba', 'Mn', 'B', 'O']",84.0,-658.30470707,5.861977570020827e-14,5.861977570020827e-14,
9078,Ba8Mn4O32P8,mp-19487,Ba2Mn(PO4)2,"['Ba', 'Mn', 'P', 'O']",52.0,-384.38153064,1.2887740243883172e-06,0.0,
26418,Ba4Cu2F28Mn4,mp-1045769,Ba2Mn2CuF14,"['Ba', 'Mn', 'Cu', 'F']",38.0,-199.17316101,0.04693426114078836,0.0,
4314,Ba4Mn4O2Sb4,mp-19213,Ba2Mn2Sb2O,"['Ba', 'Mn', 'Sb', 'O']",14.0,-79.04883144,0.0,0.0,
28079,Ba16Mn16O72Si16,mp-558695,Ba2Mn2Si2O9,"['Ba', 'Mn', 'Si', 'O']",120.0,-897.15467907,0.0,0.0,
30883,Ba4Mn6O36Se12,mp-560955,Ba2Mn3(SeO3)6,"['Ba', 'Mn', 'Se', 'O']",58.0,-354.68585261,3.50750498379071e-05,-2.398081733190338e-14,
26394,Ba8Ge8Mn4O28,mp-1192147,Ba2MnGe2O7,"['Ba', 'Mn', 'Ge', 'O']",48.0,-327.18812282,0.0,1.3322676295501878e-14,
17542,Ba4Mn2Mo2O12,mp-20399,Ba2MnMoO6,"['Ba', 'Mn', 'Mo', 'O']",20.0,-141.67589687,0.0,-1.4210854715202004e-14,
6397,Ba8Mn4O12,mp-27443,Ba2MnO3,"['Ba', 'Mn', 'O']",24.0,-157.95414533,0.00020609261393289557,0.0,
19409,Ba2Mn1O6Re1,mp-20813,Ba2MnReO6,"['Ba', 'Mn', 'Re', 'O']",10.0,-75.7244151,0.00021635743163983534,0.0,
16729,Ba8Mn4S12,mp-18445,Ba2MnS3,"['Ba', 'Mn', 'S']",24.0,-140.33066572,0.0,0.0,
16957,Ba8Mn4Se12,mp-18513,Ba2MnSe3,"['Ba', 'Mn', 'Se']",24.0,-130.82991396,0.0,0.0,
11097,Ba8Cl4Mn4O28Si8,mp-558848,Ba2MnSi2ClO7,"['Ba', 'Mn', 'Si', 'Cl', 'O']",52.0,-372.90895041,0.0,0.0,
28027,Ba8Mn4Te12,mp-16905,Ba2MnTe3,"['Ba', 'Mn', 'Te']",24.0,-119.70415376,0.0017143526374203688,0.0,
4930,Ba8Mn4O24Te4,mp-18992,Ba2MnTeO6,"['Ba', 'Mn', 'Te', 'O']",40.0,-259.383978,0.0,0.0,
8973,Ba8Mn4Se8Te4,mp-1228544,Ba2MnTeSe2,"['Ba', 'Mn', 'Te', 'Se']",24.0,-127.27445041,3.809225097572977e-05,0.0,
704,Ba4H2Mn2O18V4,mp-1192656,Ba2MnV2HO9,"['Ba', 'Mn', 'V', 'H', 'O']",30.0,-214.20536976,0.00014791636594058133,0.0,
2090,Ba4Mn2O12W2,mp-19085,Ba2MnWO6,"['Ba', 'Mn', 'W', 'O']",20.0,-145.77533398,0.0,0.0,
15742,As8Ba8Mn4O8Zn8,mp-19045,Ba2MnZn2(AsO)2,"['Ba', 'Mn', 'Zn', 'As', 'O']",36.0,-179.99681655,0.00015198710937447402,0.0,
8877,Ba2N1,mp-1892,Ba2N,"['Ba', 'N']",3.0,-13.38983632,0.00011827307373035723,0.0,
6967,Ba2Cl1N1,mp-1018099,Ba2NCl,"['Ba', 'N', 'Cl']",4.0,-19.22574413,2.032075195224081e-06,0.0,
10430,Ba4Cu6Na2O12,mp-6496,Ba2Na(CuO2)3,"['Ba', 'Na', 'Cu', 'O']",24.0,-129.01410377,0.0004519852506517097,0.0,
28182,As6Ba2Na1Sn6,mp-1228433,Ba2Na(SnAs)6,"['Ba', 'Na', 'Sn', 'As']",15.0,-64.05844564,0.00024333347265592664,3.552713678800501e-15,
24195,Al8Ba4F40Na4Sr2,mp-1204071,Ba2Na2SrAl4F20,"['Ba', 'Na', 'Sr', 'Al', 'F']",58.0,-329.98246597,0.0,0.0,
24444,Ba2Na2O2S4U1,mp-1102325,Ba2Na2U(S2O)2,"['Ba', 'Na', 'U', 'S', 'O']",11.0,-66.86997542,0.0,0.0,
14098,Ba2I1Na1O6,mp-1091394,Ba2NaIO6,"['Ba', 'Na', 'I', 'O']",10.0,-54.34922505,0.00038077563964833416,0.0,
24110,Ba4Na2O2,mp-1019519,Ba2NaO,"['Ba', 'Na', 'O']",8.0,-30.47199894,0.0024397153247073255,0.0,
921,Ba2Na1O6Os1,mp-22442,Ba2NaOsO6,"['Ba', 'Na', 'Os', 'O']",10.0,-65.83448841,0.0004655083652336245,0.0,
2064,Ba2Na1O6Re1,mp-6798,Ba2NaReO6,"['Ba', 'Na', 'Re', 'O']",10.0,-70.07507455,0.0004394871386725896,0.0,
3601,Ba4Na2O12U2,mp-1214646,Ba2NaUO6,"['Ba', 'Na', 'U', 'O']",20.0,-145.60781441,0.03935138002490657,0.0,
7315,Ba2Nb15O32,mp-28675,Ba2Nb15O32,"['Ba', 'Nb', 'O']",49.0,-438.22348168,8.236028539521101e-05,0.0,
9784,Ba8Nb8O40Te4,mp-557108,Ba2Nb2TeO10,"['Ba', 'Nb', 'Te', 'O']",60.0,-450.71454871,0.0,0.0,
30947,Ba2Nb5O9,mp-19796,Ba2Nb5O9,"['Ba', 'Nb', 'O']",16.0,-138.71026655,0.00043476427001998275,0.0,
23502,Ba2Nb6O21Te2,mp-16998,Ba2Nb6Te2O21,"['Ba', 'Nb', 'Te', 'O']",31.0,-248.60515838,0.0002896553326454665,0.0,
2672,Ba8Cr4Nb4O24,mp-31627,Ba2NbCrO6,"['Ba', 'Nb', 'Cr', 'O']",40.0,-310.88426668,0.0075123881757814814,0.0,
24802,Ba4Fe2Nb2O12,mp-1021504,Ba2NbFeO6,"['Ba', 'Nb', 'Fe', 'O']",20.0,-149.34915873,0.0,0.0,
25555,Ba2In1Nb1O6,mp-20620,Ba2NbInO6,"['Ba', 'Nb', 'In', 'O']",10.0,-71.8600443,0.0,0.0,
19051,Ba8N12Nb4,mp-17024,Ba2NbN3,"['Ba', 'Nb', 'N']",24.0,-179.26927316,7.181942382761264e-05,0.0,
24730,Ba4F2Nb2O18P4,mp-1228528,Ba2NbP2O9F,"['Ba', 'Nb', 'P', 'O', 'F']",30.0,-226.16355069,0.00038559060677112456,0.0,
28349,Ba2Nb1O6Rh1,mp-1205833,Ba2NbRhO6,"['Ba', 'Nb', 'Rh', 'O']",10.0,-74.20156669,0.020518086859373952,0.0,
3401,Ba8Nb4O24V4,mp-1078969,Ba2NbVO6,"['Ba', 'Nb', 'V', 'O']",40.0,-312.332177,0.00010073857421843968,0.0,
11634,Ba2Cu3Nd1O6,mp-614981,Ba2Nd(CuO2)3,"['Ba', 'Nd', 'Cu', 'O']",12.0,-73.00399014,-2.3092638912203256e-14,0.0,
7101,Ba2Fe4Nd2O11,mp-704634,Ba2Nd2Fe4O11,"['Ba', 'Nd', 'Fe', 'O']",19.0,-133.76965214,0.0,0.0,
31296,Ba4Nd4O26Si8,mp-561462,Ba2Nd2Si4O13,"['Ba', 'Nd', 'Si', 'O']",42.0,-328.46555363,-2.842170943040401e-14,-2.842170943040401e-14,
17420,Ba2Bi1Nd1O6,mp-546321,Ba2NdBiO6,"['Ba', 'Nd', 'Bi', 'O']",10.0,-65.70122426,2.5556894529543683e-06,-6.217248937900877e-15,
27654,Ba4Ga2Nd2Se10,mp-1205363,Ba2NdGaSe5,"['Ba', 'Nd', 'Ga', 'Se']",18.0,-87.79759506,4.18685470915392e-05,0.0,
12495,Ba4In2Nd2Se10,mp-1190093,Ba2NdInSe5,"['Ba', 'Nd', 'In', 'Se']",18.0,-86.73957387,0.0004343387651912778,0.0,
23552,Ba2Ir1Nd1O6,mp-1079169,Ba2NdIrO6,"['Ba', 'Nd', 'Ir', 'O']",10.0,-69.94547725,0.0,0.0,
31737,Ba2Mo1Nd1O6,mp-19389,Ba2NdMoO6,"['Ba', 'Nd', 'Mo', 'O']",10.0,-71.64290254,0.009317131253906652,0.0,
27265,Ba2Nb1Nd1O6,mp-6167,Ba2NdNbO6,"['Ba', 'Nd', 'Nb', 'O']",10.0,-78.01677411,0.0,0.0,
28088,Ba2Nd1O6Pa1,mp-1205708,Ba2NdPaO6,"['Ba', 'Nd', 'Pa', 'O']",10.0,-80.15340719,0.0,0.0,
1048,Ba2Nd1O6Pu1,mp-1205885,Ba2NdPuO6,"['Ba', 'Nd', 'Pu', 'O']",10.0,-82.33061937,0.03275548853711108,0.0,
6834,Ba2Nd1O6Ru1,mp-6200,Ba2NdRuO6,"['Ba', 'Nd', 'Ru', 'O']",10.0,-71.06324293,2.6645352591003757e-14,0.0,
4303,Ba2Nd1O6Sb1,mp-6122,Ba2NdSbO6,"['Ba', 'Nd', 'Sb', 'O']",10.0,-68.43521778,0.0,0.0,
12591,Ba2Nd1O6Ta1,mp-1205600,Ba2NdTaO6,"['Ba', 'Nd', 'Ta', 'O']",10.0,-80.97493551,0.00017812258398386405,0.0,
4929,Ba2Nd1O6U1,mp-1205576,Ba2NdUO6,"['Ba', 'Nd', 'U', 'O']",10.0,-81.05263295,0.039650352460936844,-3.019806626980426e-14,
16478,Ba8Nd4O24W4,mp-1519207,Ba2NdWO6,"['Ba', 'Nd', 'W', 'O']",40.0,-292.8641466,0.014352664345702593,0.0,
8576,Ba8Ni4O32P8,mp-19491,Ba2Ni(PO4)2,"['Ba', 'Ni', 'P', 'O']",52.0,-359.71651733,4.958879358252233e-05,1.3322676295501878e-14,
16337,Ba4N4Ni6,mp-1228421,Ba2Ni3N2,"['Ba', 'Ni', 'N']",14.0,-81.40714026,0.0027936356905691184,0.0,
17555,Ba2Ge4Ni5,mp-1095498,Ba2Ni5Ge4,"['Ba', 'Ni', 'Ge']",11.0,-56.17921015,0.0,0.0,
30770,Ba4Mo2Ni2O12,mp-552567,Ba2NiMoO6,"['Ba', 'Ni', 'Mo', 'O']",20.0,-129.558048,0.0,0.0,
19302,Ba6Ni3O18Os3,mp-504568,Ba2NiOsO6,"['Ba', 'Ni', 'Os', 'O']",30.0,-197.61664555,0.0019151882096357653,-6.217248937900877e-15,
3069,Ba4Ni2O12Te2,mp-19011,Ba2NiTeO6,"['Ba', 'Ni', 'Te', 'O']",20.0,-117.11601048,-1.1546319456101628e-14,-1.1546319456101628e-14,
28659,Ba4Ni2O12W2,mp-504723,Ba2NiWO6,"['Ba', 'Ni', 'W', 'O']",20.0,-133.59914489,0.0,0.0,
7971,Ba8O28P8,mp-1019530,Ba2P2O7,"['Ba', 'P', 'O']",44.0,-319.7993543,8.011578480093817e-05,0.0,
6776,Ba8P12Pd4,mp-28894,Ba2P3Pd,"['Ba', 'P', 'Pd']",24.0,-122.95641807,0.0,0.0,
8748,Ba4Br2P14,mp-1105535,Ba2P7Br,"['Ba', 'P', 'Br']",20.0,-102.32763722,0.00010415584570377945,0.0,
31250,Ba4I2P14,mp-1188687,Ba2P7I,"['Ba', 'P', 'I']",20.0,-100.89095529,4.1630641602452556e-05,0.0,
6608,Ba2Cl1P1,mp-27869,Ba2PCl,"['Ba', 'P', 'Cl']",4.0,-17.75767836,0.0,0.0,
29437,Ba8I4O16P4,mp-1205080,Ba2PIO4,"['Ba', 'P', 'I', 'O']",32.0,-209.1866986,0.0010195887329098596,0.0,
9948,Ba2In1O6Pa1,mp-1206075,Ba2PaInO6,"['Ba', 'Pa', 'In', 'O']",10.0,-74.33356122,0.0,0.0,
8653,Ba8Pb4,mp-21246,Ba2Pb,"['Ba', 'Pb']",12.0,-36.69776632,0.00023388729410811493,0.0,
31005,Ba2O4Pb1,mp-20098,Ba2PbO4,"['Ba', 'Pb', 'O']",7.0,-41.17772,-5.329070518200751e-15,-5.329070518200751e-15,
15228,Ba8Pd4,mp-1103028,Ba2Pd,"['Ba', 'Pd']",12.0,-40.44123729,0.05771105825113931,0.0,
21885,Ba4F12Pd2,mp-29794,Ba2PdF6,"['Ba', 'Pd', 'F']",18.0,-94.7315101,0.0,0.0,
11087,Ba2O3Pd1,mp-29352,Ba2PdO3,"['Ba', 'Pd', 'O']",6.0,-35.49236833,0.0,0.0,
4214,Ba2Cu3O6Pr1,mp-1214585,Ba2Pr(CuO2)3,"['Ba', 'Pr', 'Cu', 'O']",12.0,-72.88452682,-2.3092638912203256e-14,-2.3092638912203256e-14,
23490,Ba2Cu4O8Pr1,mp-6779,Ba2Pr(CuO2)4,"['Ba', 'Pr', 'Cu', 'O']",15.0,-89.48122933,0.0,0.0,
22102,Ba2Bi1O6Pr1,mp-1214573,Ba2PrBiO6,"['Ba', 'Pr', 'Bi', 'O']",10.0,-65.54953613,0.000774701208984041,0.0,
17534,Ba2Ir1O6Pr1,mp-6135,Ba2PrIrO6,"['Ba', 'Pr', 'Ir', 'O']",10.0,-69.75808605,0.0012484445605460692,0.0,
28271,Ba4Nb2O12Pr2,mp-10344,Ba2PrNbO6,"['Ba', 'Pr', 'Nb', 'O']",20.0,-155.68931176,0.0,0.0,
28342,Ba2O6Pa1Pr1,mp-1206062,Ba2PrPaO6,"['Ba', 'Pr', 'Pa', 'O']",10.0,-79.9478442,0.06276274186523345,0.0,
9089,Ba2O6Pr1Pt1,mp-9319,Ba2PrPtO6,"['Ba', 'Pr', 'Pt', 'O']",10.0,-65.86827718,0.00013762623829283172,0.0,
30217,Ba2O6Pr1Ru1,mp-6183,Ba2PrRuO6,"['Ba', 'Pr', 'Ru', 'O']",10.0,-70.88749873,2.6645352591003757e-14,0.0,
15895,Ba2O6Pr1Sb1,mp-6692,Ba2PrSbO6,"['Ba', 'Pr', 'Sb', 'O']",10.0,-68.27275308,7.051835932969652e-07,0.0,
30776,Ba2O6Pr1Ta1,mp-1205686,Ba2PrTaO6,"['Ba', 'Pr', 'Ta', 'O']",10.0,-80.79769567,0.0005353158125007695,0.0,
13381,Ba2In1O6Pu1,mp-1205697,Ba2PuInO6,"['Ba', 'Pu', 'In', 'O']",10.0,-76.27696924,0.008339159984373623,0.0,
28634,Ba2Mn1O6Pu1,mp-1205598,Ba2PuMnO6,"['Ba', 'Pu', 'Mn', 'O']",10.0,-81.32821871,0.0005240152304981649,0.0,
17935,Ba2O6Pu1Zn1,mp-1207069,Ba2PuZnO6,"['Ba', 'Pu', 'Zn', 'O']",10.0,-74.03851009,0.02803904550783365,0.0,
3881,Ba4Re12S22,mp-14406,Ba2Re6S11,"['Ba', 'Re', 'S']",38.0,-281.48132969,0.0,0.0,
5907,Ba8N12Re4,mp-1246715,Ba2ReN3,"['Ba', 'Re', 'N']",24.0,-179.760896,0.0029996031087247133,0.0,
24743,Ba8O20Re4,mp-505390,Ba2ReO5,"['Ba', 'Re', 'O']",32.0,-238.06991106,0.0002449363574248409,3.552713678800501e-15,
15176,Ba2O18Ru7,mp-559442,Ba2Ru7O18,"['Ba', 'Ru', 'O']",27.0,-192.74283897,9.049550491813108e-05,0.0,
939,Ba8O20Sb8,mp-765493,Ba2Sb2O5,"['Ba', 'Sb', 'O']",36.0,-223.21504949,9.696376952028629e-06,0.0,
28166,Ba16Sb24,mp-16922,Ba2Sb3,"['Ba', 'Sb']",40.0,-163.68588445,9.460017578177826e-05,-1.7763568394002505e-15,
23365,Au1Ba2Sb1,mp-862631,Ba2SbAu,"['Ba', 'Sb', 'Au']",4.0,-14.98738985,0.0014065365742998992,0.0,
27724,Ba4O10Sc4,mp-755950,Ba2Sc2O5,"['Ba', 'Sc', 'O']",18.0,-138.74936809,0.011589694146419305,0.0,
4351,Ba2Cu1O4Sc1,mp-1228350,Ba2ScCuO4,"['Ba', 'Sc', 'Cu', 'O']",8.0,-54.35317011,3.474363525413082e-05,0.0,
29364,Ba2Ir1O6Sc1,mp-10302,Ba2ScIrO6,"['Ba', 'Sc', 'Ir', 'O']",10.0,-72.37832335,4.7139648362559683e-07,0.0,
25071,Ba2Nb1O6Sc1,mp-1206644,Ba2ScNbO6,"['Ba', 'Sc', 'Nb', 'O']",10.0,-80.60657685,0.0,0.0,
4466,Ba2F1O3Sc1,mp-1228342,Ba2ScO3F,"['Ba', 'Sc', 'O', 'F']",7.0,-49.52332949,0.007634300326450294,0.0,
21552,Ba2O6Os1Sc1,mp-1205674,Ba2ScOsO6,"['Ba', 'Sc', 'Os', 'O']",10.0,-75.76997144,0.00043984940818830864,0.0,
16986,Ba2O6Pa1Sc1,mp-1206567,Ba2ScPaO6,"['Ba', 'Sc', 'Pa', 'O']",10.0,-82.90478197,0.0,0.0,
25239,Ba2O6Re1Sc1,mp-1206861,Ba2ScReO6,"['Ba', 'Sc', 'Re', 'O']",10.0,-78.71346061,0.0024231139782529,0.0,
29996,Ba2O6Sc1Ta1,mp-1205823,Ba2ScTaO6,"['Ba', 'Sc', 'Ta', 'O']",10.0,-83.53489566,3.766788671732968e-05,0.0,
11722,Ba2O6Sc1U1,mp-1206763,Ba2ScUO6,"['Ba', 'Sc', 'U', 'O']",10.0,-83.78517358,0.001964526765624086,0.0,
28605,Ba8Si4,mp-9905,Ba2Si,"['Ba', 'Si']",12.0,-40.81868939,0.0,0.0,
18097,Ag4Ba8Si12,mp-9867,Ba2Si3Ag,"['Ba', 'Si', 'Ag']",24.0,-102.27191518,0.0,0.0,
12081,Au1Ba2Si3,mp-1228346,Ba2Si3Au,"['Ba', 'Si', 'Au']",6.0,-26.02804261,0.12264842862711589,0.0,
418,Ba6Ni3Si9,mp-29819,Ba2Si3Ni,"['Ba', 'Si', 'Ni']",18.0,-86.161123,0.0,0.0,
18838,Ba8O32Si12,mp-29222,Ba2Si3O8,"['Ba', 'Si', 'O']",52.0,-392.45892521,1.3305588897338794e-07,0.0,
4798,Ba4N16Si10,mp-9711,Ba2Si5N8,"['Ba', 'Si', 'N']",30.0,-229.76924602,0.0,7.105427357601002e-15,
29979,Ba8O16Si4,mp-17612,Ba2SiO4,"['Ba', 'Si', 'O']",28.0,-199.36379961,0.0,0.0,
18961,Ba8S16Si4,mp-5838,Ba2SiS4,"['Ba', 'Si', 'S']",28.0,-148.32389575,0.01409064163644036,0.0,
2343,Ba4Se8Si2,mp-14447,Ba2SiSe4,"['Ba', 'Si', 'Se']",14.0,-66.86506041,0.0,0.0,
9192,Ba4Si2Te8,mp-14448,Ba2SiTe4,"['Ba', 'Si', 'Te']",14.0,-58.53736861,3.6212130998691805e-05,0.0,
28913,Ba2Cu4O8Sm1,mp-1214577,Ba2Sm(CuO2)4,"['Ba', 'Sm', 'Cu', 'O']",15.0,-89.70451933,0.0,0.0,
16322,Ba8Bi4O24Sm4,mp-1520422,Ba2SmBiO6,"['Ba', 'Sm', 'Bi', 'O']",40.0,-263.26852721,0.0037590914785159413,-6.217248937900877e-15,
19850,Ba4Ga2Se10Sm2,mp-1189376,Ba2SmGaSe5,"['Ba', 'Sm', 'Ga', 'Se']",18.0,-87.75140422,0.0,0.0,
30123,Ba2Mo1O6Sm1,mp-1095110,Ba2SmMoO6,"['Ba', 'Sm', 'Mo', 'O']",10.0,-71.9457244,0.0,0.0,
4142,Ba8Nb4O24Sm4,mp-1520939,Ba2SmNbO6,"['Ba', 'Sm', 'Nb', 'O']",40.0,-312.75940867,0.004350214158231225,2.842170943040401e-14,
1119,Ba2O6Os1Sm1,mp-1080470,Ba2SmOsO6,"['Ba', 'Sm', 'Os', 'O']",10.0,-73.59286339,1.4210854715202004e-14,-3.552713678800501e-15,
2750,Ba2O6Pa1Sm1,mp-1205602,Ba2SmPaO6,"['Ba', 'Sm', 'Pa', 'O']",10.0,-80.46936874,0.0,0.0,
2793,Ba2O6Sb1Sm1,mp-6037,Ba2SmSbO6,"['Ba', 'Sm', 'Sb', 'O']",10.0,-68.6585242,0.0,0.0,
13920,Ba2O6Sm1Ta1,mp-1214622,Ba2SmTaO6,"['Ba', 'Sm', 'Ta', 'O']",10.0,-81.17248252,0.002307576857422333,0.0,
24002,Ba2O6Sm1U1,mp-1207130,Ba2SmUO6,"['Ba', 'Sm', 'U', 'O']",10.0,-81.36767045,0.026563960859373736,0.0,
21938,Ba8O24Sm4W4,mp-1517191,Ba2SmWO6,"['Ba', 'Sm', 'W', 'O']",40.0,-294.01887882,0.006021163044920286,0.0,
2723,Ba8Sn4,mp-1981,Ba2Sn,"['Ba', 'Sn']",12.0,-38.68384036,0.0,0.0,
14447,Ba2Hg1Sn1,mp-867912,Ba2SnHg,"['Ba', 'Sn', 'Hg']",4.0,-10.68403617,0.00013901925231918355,0.0,
31777,Ba2O4Sn1,mp-3359,Ba2SnO4,"['Ba', 'Sn', 'O']",7.0,-43.96807863,9.552199079276846e-05,0.0,
18088,Ba8F8S12Sn4,mp-17918,Ba2SnS3F2,"['Ba', 'Sn', 'S', 'F']",32.0,-166.02074839,2.32768677221884e-06,0.0,
11737,Ba8S16Sn4,mp-541832,Ba2SnS4,"['Ba', 'Sn', 'S']",28.0,-137.24969962,0.0028043243973217002,0.0,
10057,Ba8F8Se12Sn4,mp-17805,Ba2SnSe3F2,"['Ba', 'Sn', 'Se', 'F']",32.0,-156.93091513,2.7944580160976784e-07,0.0,
3014,Ba8Se16Sn4,mp-1192595,Ba2SnSe4,"['Ba', 'Sn', 'Se']",28.0,-125.50686834,0.0006839231598769757,0.0,
8775,Ba32Se80Sn16,mp-31307,Ba2SnSe5,"['Ba', 'Sn', 'Se']",128.0,-560.9835762,0.0,0.0,
3274,Ba8Sn4Te20,mp-583630,Ba2SnTe5,"['Ba', 'Sn', 'Te']",32.0,-125.37052876,0.03992932026448415,0.0,
25483,Ba2Ir1O6Sr1,mp-9115,Ba2SrIrO6,"['Ba', 'Sr', 'Ir', 'O']",10.0,-64.50116379,0.00023244912499897907,0.0,
3326,Ba2O6Se1Sr1,mp-1523293,Ba2SrSeO6,"['Ba', 'Sr', 'Se', 'O']",10.0,-59.54959934,0.0018807459316407815,0.0,
5937,Ba2O6Sr1Te1,mp-13356,Ba2SrTeO6,"['Ba', 'Sr', 'Te', 'O']",10.0,-61.54422305,0.0,0.0,
11810,Ba4O12Sr2U2,mp-14552,Ba2SrUO6,"['Ba', 'Sr', 'U', 'O']",20.0,-154.96096048,7.105427357601002e-15,0.0,
15321,Ba2O6Sr1W1,mp-18764,Ba2SrWO6,"['Ba', 'Sr', 'W', 'O']",10.0,-69.29776857,1.1869806640696368e-05,0.0,
6219,Ba2O32Ta15,mp-28457,Ba2Ta15O32,"['Ba', 'Ta', 'O']",49.0,-475.36670813,9.217304846842467e-05,0.0,
12878,Ba4O14Ta4,mp-770239,Ba2Ta2O7,"['Ba', 'Ta', 'O']",22.0,-190.47268619,0.008175097276295062,0.0,
14455,Ba2O21Ta6Te2,mp-6238,Ba2Ta6Te2O21,"['Ba', 'Ta', 'Te', 'O']",31.0,-266.09766642,0.00019662254032226656,0.0,
29316,Ba2Bi1O6Ta1,mp-545544,Ba2TaBiO6,"['Ba', 'Ta', 'Bi', 'O']",10.0,-74.66694666,6.880445898538312e-05,0.0,
25220,Ba8Cr4O24Ta4,mp-31630,Ba2TaCrO6,"['Ba', 'Ta', 'Cr', 'O']",40.0,-322.41517235,0.0053405154687578005,-1.5987211554602254e-14,
7460,Ba4Fe2O12Ta2,mp-1205671,Ba2TaFeO6,"['Ba', 'Ta', 'Fe', 'O']",20.0,-155.09360705,0.0,0.0,
23681,Ba2In1O6Ta1,mp-1079630,Ba2TaInO6,"['Ba', 'Ta', 'In', 'O']",10.0,-74.7804051,0.0,7.105427357601002e-15,
24673,Ba8N12Ta4,mp-17400,Ba2TaN3,"['Ba', 'Ta', 'N']",24.0,-188.59694418,9.645730306040434e-05,0.0,
7352,Ba2O6Ta1Tl1,mp-1205650,Ba2TaTlO6,"['Ba', 'Ta', 'Tl', 'O']",10.0,-71.79015664,0.004281467347655443,0.0,
28429,Ba2Bi1O6Tb1,mp-552191,Ba2TbBiO6,"['Ba', 'Tb', 'Bi', 'O']",10.0,-66.19745859,0.00018838782617258687,0.0,