,Composition,MaterialId,Reduced Formula,Elements,NSites,Corrected Energy,Decomposition Energy Per Atom All,Decomposition Energy Per Atom MP,Directory
11233,As4Be4Cs4O16,mp-9113,CsBeAsO4,"['Cs', 'Be', 'As', 'O']",28.0,-169.62258263,9.652688336636572e-06,0.0,
16316,Be4Cs4F12,mp-12262,CsBeF3,"['Cs', 'Be', 'F']",20.0,-104.09349775,0.0,0.0,
7707,Be2Cs2H6,mp-24341,CsBeH3,"['Cs', 'Be', 'H']",10.0,-30.63410747,0.10999491706249875,0.0,
2406,Be4Cs4O16P4,mp-15395,CsBePO4,"['Cs', 'Be', 'P', 'O']",28.0,-188.75131601,0.000277950814737693,-6.217248937900877e-15,
25031,Bi16Cs16,mp-1205121,CsBi,"['Cs', 'Bi']",32.0,-88.19646438,0.0002098133050538742,0.0,
16080,Bi2Cs2Mo4O16,mp-1213697,CsBi(MoO4)2,"['Cs', 'Bi', 'Mo', 'O']",24.0,-156.92086061,0.000500792861327426,0.0,
15835,Bi4Cs2,mp-23163,CsBi2,"['Cs', 'Bi']",6.0,-19.19873593,0.0017862754606117193,0.0,
7656,Bi12Cs4S20,mp-29531,CsBi3S5,"['Cs', 'Bi', 'S']",36.0,-153.26106532,-7.993605777301127e-15,0.0,
14163,Bi12Cs4Se20,mp-567928,CsBi3Se5,"['Cs', 'Bi', 'Se']",36.0,-141.19356006,0.0,0.0,
16280,Bi1Cs1F6,mp-27422,CsBiF6,"['Cs', 'Bi', 'F']",8.0,-33.87403531,5.613312500063472e-05,1.7763568394002505e-15,
13690,Bi2Cs2O4,mp-29506,CsBiO2,"['Cs', 'Bi', 'O']",8.0,-40.03440492,0.0,0.0,
25270,Bi4Cs4S8,mp-541378,CsBiS2,"['Cs', 'Bi', 'S']",16.0,-63.94882258,0.013765906712644771,0.0,
29994,Br1Cs1,mp-571222,CsBr,"['Cs', 'Br']",2.0,-6.10412726,2.417668456988764e-06,0.0,
21161,Br8Cs4F28,mp-1198032,CsBr2F7,"['Cs', 'Br', 'F']",40.0,-125.18706843,0.0,0.0,
5810,Br12Cs4,mp-27641,CsBr3,"['Cs', 'Br']",16.0,-38.92922538,-1.3322676295501878e-15,0.0,
18020,Br2Cs2F8,mp-1103152,CsBrF4,"['Cs', 'Br', 'F']",12.0,-40.26911642,2.241808430980541e-05,0.0,
20341,Br1Cs1F6,mp-541226,CsBrF6,"['Cs', 'Br', 'F']",8.0,-26.21945514,0.00036596478454598014,0.0,
19562,Br1Cs1O3,mp-28873,CsBrO3,"['Cs', 'Br', 'O']",5.0,-20.62267378,3.778123144559942e-05,0.0,
31136,C6Cs3N9,mp-1029718,CsC2N3,"['Cs', 'C', 'N']",18.0,-134.69958251,4.297606119063602e-05,-7.105427357601002e-15,
17550,C8Cs1,mp-28861,CsC8,"['Cs', 'C']",9.0,-75.12178257,0.0,0.0,
13837,C2Cs2N2O2,mp-1225916,CsCNO,"['Cs', 'C', 'N', 'O']",8.0,-54.6552324,0.0001487415954644078,6.217248937900877e-15,
7493,C8Cs8O16,mp-555131,CsCO2,"['Cs', 'C', 'O']",32.0,-209.96141036,0.0,0.0,
12395,C4Cs4F12O4,mp-14734,CsCOF3,"['Cs', 'C', 'O', 'F']",24.0,-130.90769231,0.0,0.0,
26528,C4Cs4N4S4,mp-614311,CsCSN,"['Cs', 'C', 'S', 'N']",16.0,-97.65580198,0.0003928617846673532,0.0,
3719,Ca4Cs4O36P12,mp-1201263,CsCa(PO3)3,"['Cs', 'Ca', 'P', 'O']",56.0,-392.55330174,0.00010203366071337427,0.0,
398,Ca20Cs2O56P14,mp-1019714,CsCa10(PO4)7,"['Cs', 'Ca', 'P', 'O']",92.0,-658.43291014,6.299376528584588e-05,0.0,
4191,Ca16Cs8Nb24O80,mp-581330,CsCa2Nb3O10,"['Cs', 'Ca', 'Nb', 'O']",128.0,-1026.54153188,2.617916015523747e-05,0.0,
27130,Br3Ca1Cs1,mp-30056,CsCaBr3,"['Cs', 'Ca', 'Br']",5.0,-17.74256335,4.790128905884927e-05,-3.552713678800501e-15,
7664,C3Ca3Cs3F3O9,mp-862701,CsCaCO3F,"['Cs', 'Ca', 'C', 'O', 'F']",21.0,-137.53758629,0.0009400583165923848,0.0,
21308,Ca1Cl3Cs1,mp-1097916,CsCaCl3,"['Cs', 'Ca', 'Cl']",5.0,-19.81635939,0.0001201904814420729,-3.552713678800501e-15,
26640,Ca1Cs1F3,mp-7104,CsCaF3,"['Cs', 'Ca', 'F']",5.0,-25.863732,2.8422998046728765e-05,0.0,
27981,Ca4Cs4I12,mp-998428,CsCaI3,"['Cs', 'Ca', 'I']",20.0,-62.21454895,-3.1086244689504383e-15,0.0,
24631,Ca2Cl36Cs2Ta12,mp-1213700,CsCaTa6Cl18,"['Cs', 'Ca', 'Ta', 'Cl']",52.0,-291.44036116,4.071368234903616e-05,-2.6645352591003757e-15,
24598,Cd4Cs4O36P12,mp-13738,CsCd(PO3)3,"['Cs', 'Cd', 'P', 'O']",56.0,-368.24507331,1.8671187214103213e-05,0.0,
4446,Cd26Cs2,mp-1713,CsCd13,"['Cs', 'Cd']",28.0,-26.99831856,0.0,0.0,
30714,As3Cd4Cs1,mp-1079080,CsCd4As3,"['Cs', 'Cd', 'As']",8.0,-20.58272729,0.0,0.0,
2797,B4Cd4Cs4O12,mp-1191636,CsCdBO3,"['Cs', 'Cd', 'B', 'O']",24.0,-138.14581138,2.627143880218341e-05,0.0,
3953,Br6Cd2Cs2,mp-541899,CsCdBr3,"['Cs', 'Cd', 'Br']",10.0,-26.20844357,0.00011935912548555194,-2.6645352591003757e-15,
22466,Cd6Cl18Cs6,mp-619015,CsCdCl3,"['Cs', 'Cd', 'Cl']",30.0,-88.36397237,0.0072661513059868454,0.0,
3269,Cd1Cs1F3,mp-8399,CsCdF3,"['Cs', 'Cd', 'F']",5.0,-19.71203339,5.88493437465587e-05,0.0,
18246,Cd8Cs8In8Te24,mp-1195350,CsCdInTe3,"['Cs', 'Cd', 'In', 'Te']",48.0,-143.02779658,6.126255452443274e-05,0.0,
23547,Ce2Cs2O24P8,mp-1213689,CsCe(PO3)4,"['Cs', 'Ce', 'P', 'O']",36.0,-263.82396342,0.0016738744552959872,0.0,
3057,Cd2Ce2Cs2Se6,mp-574426,CsCeCdSe3,"['Cs', 'Ce', 'Cd', 'Se']",12.0,-52.56246266,0.00031152739746076463,0.0,
7887,Ce2Cs2Cu2S6,mp-510569,CsCeCuS3,"['Cs', 'Ce', 'Cu', 'S']",12.0,-63.58660981,0.0,-5.329070518200751e-15,
773,Ce8Cs8F40,mp-1202824,CsCeF5,"['Cs', 'Ce', 'F']",56.0,-327.29836751,0.0,-5.329070518200751e-15,
11536,Ce2Cs2Hg2Se6,mp-574472,CsCeHgSe3,"['Cs', 'Ce', 'Hg', 'Se']",12.0,-49.84297374,0.005249240843904879,0.0,
3800,Ce1Cs1S2,mp-7015,CsCeS2,"['Cs', 'Ce', 'S']",4.0,-22.1329484,0.0,0.0,
4815,Ce4Cs4Se16Si4,mp-573969,CsCeSiSe4,"['Cs', 'Ce', 'Si', 'Se']",28.0,-139.74252988,0.01311258031808027,0.0,
20837,Cl1Cs1,mp-573697,CsCl,"['Cs', 'Cl']",2.0,-6.63983928,0.0001805892633055528,0.0,
11291,Cl4Cs4O16,mp-30206,CsClO4,"['Cs', 'Cl', 'O']",24.0,-105.69829703,3.572708251908807e-05,0.0,
26841,Cl6Co2Cs2,mp-504708,CsCoCl3,"['Cs', 'Co', 'Cl']",10.0,-38.98615151,0.006674977326413867,-3.552713678800501e-15,
20191,Co2Cs2Cu2F12,mp-1225979,CsCoCuF6,"['Cs', 'Co', 'Cu', 'F']",18.0,-79.47452293,0.015571950967883552,0.0,
31555,Co10Cs10F40,mp-1202342,CsCoF4,"['Cs', 'Co', 'F']",60.0,-268.68131548,0.06226306882291599,0.0,
15969,Co4Cs4N4,mp-1029491,CsCoN,"['Cs', 'Co', 'N']",12.0,-64.96303275,0.031222103670836887,0.0,
11697,Co2Cs2F12Ni2,mp-1228915,CsCoNiF6,"['Cs', 'Co', 'Ni', 'F']",18.0,-80.31777924,0.042998036471354695,0.0,
5212,Co4Cs4O8,mp-1189563,CsCoO2,"['Cs', 'Co', 'O']",16.0,-82.62076158,0.05887559994995062,0.0,
22068,Co4Cs4O16P4,mp-1213696,CsCoPO4,"['Cs', 'Co', 'P', 'O']",28.0,-181.62329477,0.0007652118973213717,-6.217248937900877e-15,
8509,Cr2Cs2Mo4O16,mp-1213686,CsCr(MoO4)2,"['Cs', 'Cr', 'Mo', 'O']",24.0,-167.79675411,0.00010820684244805534,0.0,
16612,Cr2Cs2O16S4,mp-1213684,CsCr(SO4)2,"['Cs', 'Cr', 'S', 'O']",24.0,-152.22338496,0.03214556583496009,0.0,
10546,Cr12Cs4O32,mp-573422,CsCr3O8,"['Cs', 'Cr', 'O']",48.0,-325.06905238,0.01154695867675759,0.0,
14718,Cr5Cs1S8,mp-540569,CsCr5S8,"['Cs', 'Cr', 'S']",14.0,-93.45922861,0.0017020414243855697,0.0,
10684,Cr5Cs1Se8,mp-505149,CsCr5Se8,"['Cs', 'Cr', 'Se']",14.0,-86.21294656,0.0017699086258371466,4.529709940470639e-14,
5900,Cr5Cs1Te8,mp-866025,CsCr5Te8,"['Cs', 'Cr', 'Te']",14.0,-78.90380703,0.0037248518610484282,0.0,
9048,As8Cr4Cs4O28,mp-1195248,CsCrAs2O7,"['Cs', 'Cr', 'As', 'O']",44.0,-277.33275655,0.000162337819605618,2.6645352591003757e-15,
15392,Co2Cr2Cs2F12,mp-1225975,CsCrCoF6,"['Cs', 'Cr', 'Co', 'F']",18.0,-97.20608751,0.0,0.0,
12703,Cr2Cs2Cu2F12,mp-1228892,CsCrCuF6,"['Cs', 'Cr', 'Cu', 'F']",18.0,-91.01168637,0.0009652117035390262,0.0,
1535,Cr3Cs3F12,mp-27149,CsCrF4,"['Cs', 'Cr', 'F']",18.0,-98.81377721,2.443166558130372e-05,0.0,
2537,Cr2Cs2F12Fe2,mp-1225950,CsCrFeF6,"['Cs', 'Cr', 'Fe', 'F']",18.0,-100.19895635,0.0006143804307718881,1.1546319456101628e-14,
20710,Cr2Cs2F12Ni2,mp-1229022,CsCrNiF6,"['Cs', 'Cr', 'Ni', 'F']",18.0,-92.61119851,6.572337565113884e-05,0.0,
5718,Cr2Cs2F2O6,mp-1225991,CsCrO3F,"['Cs', 'Cr', 'O', 'F']",12.0,-70.89364027,0.0016630225375866559,-6.217248937900877e-15,
12902,Cr4Cs4O28P8,mp-562965,CsCrP2O7,"['Cs', 'Cr', 'P', 'O']",44.0,-314.28107137,0.0,0.0,
19899,Cr1Cs1P2S7,mp-1103473,CsCrP2S7,"['Cs', 'Cr', 'P', 'S']",11.0,-56.63413661,0.0011766151109737777,0.0,
29406,As8Cs8Cu16S24,mp-1196438,CsCu2AsS3,"['Cs', 'Cu', 'As', 'S']",56.0,-236.26154297,0.005169704160186583,0.0,
19064,Br6Cs2Cu4,mp-23017,CsCu2Br3,"['Cs', 'Cu', 'Br']",12.0,-37.58662729,0.009511327645060685,0.0,
17591,Cl6Cs2Cu4,mp-23065,CsCu2Cl3,"['Cs', 'Cu', 'Cl']",12.0,-40.68004856,0.01025796602695106,-3.1086244689504383e-15,
2760,Cs4Cu8F20,mp-572903,CsCu2F5,"['Cs', 'Cu', 'F']",32.0,-134.92301816,0.0,4.440892098500626e-15,
27959,Cs2Cu4F12,mp-14581,CsCu2F6,"['Cs', 'Cu', 'F']",18.0,-73.88133122,0.016473976276041746,0.0,
8075,Cl4Cs2Cu4I2,mp-579536,CsCu2ICl2,"['Cs', 'Cu', 'I', 'Cl']",12.0,-39.11885303,-3.1086244689504383e-15,0.0,
11578,Cs1Cu3O2,mp-553303,CsCu3O2,"['Cs', 'Cu', 'O']",6.0,-27.54412991,0.00014098667968731604,0.0,
28584,Cs1Cu3S2,mp-7786,CsCu3S2,"['Cs', 'Cu', 'S']",6.0,-24.71405582,-3.552713678800501e-15,0.0,
19689,Br12Cs4Cu4,mp-27336,CsCuBr3,"['Cs', 'Cu', 'Br']",20.0,-58.25412827,0.008901795728518458,0.0,
18129,Cl18Cs6Cu6,mp-23032,CsCuCl3,"['Cs', 'Cu', 'Cl']",30.0,-96.87017557,0.020034180625653875,0.0,
4416,Cs2Cu2F8,mp-540921,CsCuF4,"['Cs', 'Cu', 'F']",12.0,-48.40792802,0.0017213481665017127,0.0,
21903,Cs2Cu2O2,mp-541037,CsCuO,"['Cs', 'Cu', 'O']",6.0,-25.64811805,0.00235041675618497,0.0,
2972,Cs2Cu2O4,mp-553310,CsCuO2,"['Cs', 'Cu', 'O']",8.0,-37.8436822,0.00040009563598619735,0.0,
18396,Cs8Cu8P8S24,mp-1198842,CsCuPS3,"['Cs', 'Cu', 'P', 'S']",48.0,-213.38786607,0.0001510674910480958,0.0,
7874,Cs8Cu8P8Se24,mp-1201069,CsCuPSe3,"['Cs', 'Cu', 'P', 'Se']",48.0,-191.86355578,3.66212215165973e-05,0.0,
27512,Cs2Cu2F12Rh2,mp-1228942,CsCuRhF6,"['Cs', 'Cu', 'Rh', 'F']",18.0,-81.00468671,0.0004948660731338705,0.0,
16456,Cs4Cu4S16,mp-18003,CsCuS4,"['Cs', 'Cu', 'S']",24.0,-96.59196583,0.0,0.0,
18827,Cs4Cu4S24,mp-1199244,CsCuS6,"['Cs', 'Cu', 'S']",32.0,-129.4403994,0.0025379147155843995,0.0,
24118,Cs4Cu4Se16,mp-17095,CsCuSe4,"['Cs', 'Cu', 'Se']",24.0,-86.09909085,0.0,0.0,
22226,Cs2Dy2Mo4O16,mp-572231,CsDy(MoO4)2,"['Cs', 'Dy', 'Mo', 'O']",24.0,-170.92683808,0.023797314700519934,0.0,
13391,Cs2Dy2O16W4,mp-1213681,CsDy(WO4)2,"['Cs', 'Dy', 'W', 'O']",24.0,-176.79927406,0.0008563939436854184,0.0,
23589,Ag6Cs2Dy4Te10,mp-1190421,CsDy2Ag3Te5,"['Cs', 'Dy', 'Ag', 'Te']",22.0,-87.99679429,6.947563209536156e-05,0.0,
22117,Cl28Cs4Dy8,mp-1213680,CsDy2Cl7,"['Cs', 'Dy', 'Cl']",40.0,-183.0651734,3.810274414917103e-05,8.881784197001252e-15,
9184,Cs2Cu6Dy4Se10,mp-18672,CsDy2Cu3Se5,"['Cs', 'Dy', 'Cu', 'Se']",22.0,-104.20349786,0.005319644810333202,0.0,
1303,Cd2Cs2Dy2Se6,mp-11122,CsDyCdSe3,"['Cs', 'Dy', 'Cd', 'Se']",12.0,-50.0770529,0.00177231997884153,0.0,
13987,Cd2Cs2Dy2Te6,mp-12487,CsDyCdTe3,"['Cs', 'Dy', 'Cd', 'Te']",12.0,-44.70207147,6.856463215854092e-06,0.0,
16057,Cs2Dy2O4,mp-754138,CsDyO2,"['Cs', 'Dy', 'O']",8.0,-51.78323867,0.003967358096852891,0.0,
28247,Cs2Dy2S4,mp-984555,CsDyS2,"['Cs', 'Dy', 'S']",8.0,-42.10564011,1.8764020995654107e-05,0.0,
7379,Cs4Dy4S16Si4,mp-1193064,CsDySiS4,"['Cs', 'Dy', 'Si', 'S']",28.0,-150.16971932,4.116965401745887e-05,0.0,
9908,Cs2Dy2Se6Zn2,mp-1102146,CsDyZnSe3,"['Cs', 'Dy', 'Zn', 'Se']",12.0,-51.45457401,0.003074437053222745,0.0,
26868,Cs2Dy2Te6Zn2,mp-510462,CsDyZnTe3,"['Cs', 'Dy', 'Zn', 'Te']",12.0,-45.55635517,0.0002947560359700674,0.0,
23612,Cs1Er1Mo2O8,mp-1213682,CsEr(MoO4)2,"['Cs', 'Er', 'Mo', 'O']",12.0,-85.77859365,0.0015439180419907217,0.0,
25804,Br36Cs2Er2Nb12,mp-569903,CsEr(NbBr3)6,"['Cs', 'Er', 'Nb', 'Br']",52.0,-250.54724159,0.00090694265837854,0.0,
13662,Br36Cs2Er2Ta12,mp-571010,CsEr(TaBr3)6,"['Cs', 'Er', 'Ta', 'Br']",52.0,-270.6869209,0.005080556986158058,0.0,
6339,Cs1Er1O8W2,mp-1213193,CsEr(WO4)2,"['Cs', 'Er', 'W', 'O']",12.0,-88.36654336,0.0014951354459640243,0.0,
23343,C4Cs1Er10I18,mp-1196026,CsEr10(C2I9)2,"['Cs', 'Er', 'C', 'I']",33.0,-151.3774374,0.00013856393229172426,0.0,
5962,Ag6Cs2Er4Te10,mp-1190252,CsEr2Ag3Te5,"['Cs', 'Er', 'Ag', 'Te']",22.0,-87.39723433,0.0014419076740059822,0.0,
31269,Cl28Cs4Er8,mp-1213445,CsEr2Cl7,"['Cs', 'Er', 'Cl']",40.0,-182.36231482,6.844480762602245e-05,8.881784197001252e-15,
2303,Cs4Er12Se20,mp-17410,CsEr3Se5,"['Cs', 'Er', 'Se']",36.0,-194.27479006,6.846051866382652e-05,0.0,
7495,C1Cs1Er6I12,mp-23118,CsEr6CI12,"['Cs', 'Er', 'C', 'I']",20.0,-80.82915015,0.019501117276207403,0.0,
27908,Cd2Cs2Er2Te6,mp-12488,CsErCdTe3,"['Cs', 'Er', 'Cd', 'Te']",12.0,-44.47393314,0.0,0.0,
24614,Cs2Er2Mn2Se6,mp-1213650,CsErMnSe3,"['Cs', 'Er', 'Mn', 'Se']",12.0,-66.15951827,0.0018276960465488656,0.0,
19093,Cs4Er4O28P8,mp-1198204,CsErP2O7,"['Cs', 'Er', 'P', 'O']",44.0,-323.50024735,0.00035556226917687894,0.0,
16722,Cs1Er1S2,mp-561751,CsErS2,"['Cs', 'Er', 'S']",4.0,-20.98888757,0.0027520111560059846,0.0,
30797,Cs4Er4S16Si4,mp-16972,CsErSiS4,"['Cs', 'Er', 'Si', 'S']",28.0,-149.78022687,8.350834263204376e-06,0.0,
7067,Cl36Cs2Er2Ta12,mp-568606,CsErTa6Cl18,"['Cs', 'Er', 'Ta', 'Cl']",52.0,-297.10094305,1.0226990728945395e-05,-2.6645352591003757e-15,
8489,Cs2Er2Se6Zn2,mp-7155,CsErZnSe3,"['Cs', 'Er', 'Zn', 'Se']",12.0,-51.36844663,5.441864420419051e-06,0.0,
16756,Cs2Er2Te6Zn2,mp-569107,CsErZnTe3,"['Cs', 'Er', 'Zn', 'Te']",12.0,-45.36178634,0.0003405487337233559,0.0,
7607,Cs2Eu2Mo4O16,mp-1213374,CsEu(MoO4)2,"['Cs', 'Eu', 'Mo', 'O']",24.0,-177.61582191,0.040308440721029015,0.0,
28348,Cs2Eu2O16W4,mp-1213312,CsEu(WO4)2,"['Cs', 'Eu', 'W', 'O']",24.0,-183.63769574,0.009044448841960318,0.0,
846,As4Cs4Eu4S12,mp-1190817,CsEuAsS3,"['Cs', 'Eu', 'As', 'S']",24.0,-140.44968009,0.030843286273784187,0.0,
29527,Br12Cs4Eu4,mp-638685,CsEuBr3,"['Cs', 'Eu', 'Br']",20.0,-103.85727186,0.0038918635429636694,0.0,
27103,Cs1Eu1F3,mp-8396,CsEuF3,"['Cs', 'Eu', 'F']",5.0,-33.44897064,0.004405560720702972,0.0,
16409,Cs1F1,mp-1784,CsF,"['Cs', 'F']",2.0,-8.03004941,3.7096910400435945e-05,0.0,
25666,Cs1Fe1Mo2O8,mp-1104989,CsFe(MoO4)2,"['Cs', 'Fe', 'Mo', 'O']",12.0,-80.79419924,-1.4210854715202004e-14,-1.4210854715202004e-14,
7651,Cs4Fe4O32S8,mp-560628,CsFe(SO4)2,"['Cs', 'Fe', 'S', 'O']",48.0,-293.89524373,0.0,0.0,
29874,Cs1Fe1O8Se2,mp-1213156,CsFe(SeO4)2,"['Cs', 'Fe', 'Se', 'O']",12.0,-65.36522478,0.0027135935693252122,0.0,
23744,Cs4F24Fe8,mp-1197505,CsFe2F6,"['Cs', 'Fe', 'F']",36.0,-187.95461446,0.0,0.0,
4672,Cs2Fe4O32P10,mp-19476,CsFe2P5O16,"['Cs', 'Fe', 'P', 'O']",48.0,-337.96083676,0.0001806621858726487,0.0,
23853,Cs2Fe4S6,mp-542475,CsFe2S3,"['Cs', 'Fe', 'S']",12.0,-68.90589824,0.001129665302734395,-5.329070518200751e-15,
19741,Cs2Fe4Se6,mp-662563,CsFe2Se3,"['Cs', 'Fe', 'Se']",12.0,-62.93006376,0.03240561201822967,0.0,
25844,Ag4Cs4F24Fe4,mp-1196464,CsFeAgF6,"['Cs', 'Fe', 'Ag', 'F']",36.0,-160.02554028,-4.440892098500626e-15,0.0,
16533,B4Cs4Fe4H4O36P8,mp-757463,CsFeBP2HO9,"['Cs', 'Fe', 'B', 'P', 'H', 'O']",60.0,-413.52092791,0.0013873424505064236,0.0,
30002,Br16Cs4Fe4,mp-1213351,CsFeBr4,"['Cs', 'Fe', 'Br']",24.0,-87.94848267,0.00017716454752658706,0.0,
12288,Cl6Cs2Fe2,mp-29400,CsFeCl3,"['Cs', 'Fe', 'Cl']",10.0,-42.61592513,0.0037762839207777787,0.0,
11315,Cl16Cs4Fe4,mp-27570,CsFeCl4,"['Cs', 'Fe', 'Cl']",24.0,-97.58696626,3.3960459794535325e-05,0.0,
28322,Co2Cs2F12Fe2,mp-1226043,CsFeCoF6,"['Cs', 'Fe', 'Co', 'F']",18.0,-90.89566466,0.0017342197352441246,-5.329070518200751e-15,
2862,Cs2Cu2F12Fe2,mp-1228920,CsFeCuF6,"['Cs', 'Fe', 'Cu', 'F']",18.0,-84.88574957,0.05575490896194513,9.769962616701378e-15,
8425,Cs4F16Fe4,mp-554225,CsFeF4,"['Cs', 'Fe', 'F']",24.0,-119.43074548,0.0,0.0,
5513,Cl12Cs4Fe4H16O8,mp-744268,CsFeH4Cl3O2,"['Cs', 'Fe', 'H', 'Cl', 'O']",44.0,-197.30906471,0.0008781319238284624,0.0,
3433,Cs4Fe4I16,mp-568620,CsFeI4,"['Cs', 'Fe', 'I']",24.0,-78.37701873,0.0,0.0,
23431,Cs2F12Fe2Ni2,mp-1225937,CsFeNiF6,"['Cs', 'Fe', 'Ni', 'F']",18.0,-86.33288024,0.000302965453538917,-2.042810365310288e-14,
2318,Cs2Fe2O4,mp-1080749,CsFeO2,"['Cs', 'Fe', 'O']",8.0,-45.1381709,0.0,0.0,
16360,Cs1Fe1H12O10P1,mp-1192997,CsFeP(H6O5)2,"['Cs', 'Fe', 'P', 'H', 'O']",25.0,-135.89944297,0.0016253323474684223,0.0,
20939,Cs4Fe4O28P8,mp-20113,CsFeP2O7,"['Cs', 'Fe', 'P', 'O']",44.0,-302.21963882,0.0,0.0,
16474,Cs2Fe2S4,mp-505632,CsFeS2,"['Cs', 'Fe', 'S']",8.0,-41.48760805,0.00020682684936534912,0.0,
4119,Cs4Fe4O16Si4,mp-644325,CsFeSiO4,"['Cs', 'Fe', 'Si', 'O']",28.0,-188.52839443,0.0006188347056310661,-6.217248937900877e-15,
22597,Cs12Ga12O144P48,mp-1200733,CsGa(PO3)4,"['Cs', 'Ga', 'P', 'O']",216.0,-1484.58419131,0.0030247038599533482,0.0,
4432,Cs1Ga1O8S2,mp-1213179,CsGa(SO4)2,"['Cs', 'Ga', 'S', 'O']",12.0,-70.78744893,0.043264886123047575,0.0,
26968,Cs4Ga4O24Se8,mp-1200987,CsGa(SeO3)2,"['Cs', 'Ga', 'Se', 'O']",40.0,-213.86347808,0.00021840383496130045,0.0,
1054,Au12Cs4Ga8,mp-1191527,CsGa2Au3,"['Cs', 'Ga', 'Au']",24.0,-74.7468761,0.0,0.0,
27468,Cs2Ga4O32P10,mp-555006,CsGa2P5O16,"['Cs', 'Ga', 'P', 'O']",48.0,-329.90212659,0.0,0.0,
18832,Cs3Ga9,mp-574338,CsGa3,"['Cs', 'Ga']",12.0,-31.8354022,0.004319135565183263,-2.220446049250313e-15,
26094,Cs4Ga12S20,mp-573145,CsGa3S5,"['Cs', 'Ga', 'S']",36.0,-154.26958612,2.595860785525872e-05,0.0,
9323,Cs1Ga5Hg4Se12,mp-1225982,CsGa5(HgSe3)4,"['Cs', 'Ga', 'Hg', 'Se']",22.0,-71.1583264,0.00011965460317231447,0.0,
31328,Cs2Ga14,mp-30574,CsGa7,"['Cs', 'Ga']",16.0,-45.91082184,0.013351087468872258,0.0,
7037,Au10Cs2Ga18,mp-1192476,CsGa9Au5,"['Cs', 'Ga', 'Au']",30.0,-96.884656,0.0006473207519528401,0.0,
29730,Ag4Cs4F24Ga4,mp-1213239,CsGaAgF6,"['Cs', 'Ga', 'Ag', 'F']",36.0,-152.28331003,0.00023050345269126638,0.0,
11538,Br16Cs4Ga4,mp-672251,CsGaBr4,"['Cs', 'Ga', 'Br']",24.0,-72.07887571,0.00023092744791686215,0.0,
22225,Cl16Cs4Ga4,mp-608516,CsGaCl4,"['Cs', 'Ga', 'Cl']",24.0,-82.02304091,3.74011499020277e-05,0.0,
27428,Cs2Cu2F12Ga2,mp-1225926,CsGaCuF6,"['Cs', 'Ga', 'Cu', 'F']",18.0,-80.98498249,0.004358591321615535,-1.687538997430238e-14,
13274,Cs4Ga4H96O80S8,mp-738629,CsGaH24(SO10)2,"['Cs', 'Ga', 'H', 'S', 'O']",192.0,-999.866808,0.00289331363932277,0.0,
28746,Cs4Ga4H16,mp-1191351,CsGaH4,"['Cs', 'Ga', 'H']",24.0,-74.67725217,0.0006068533496090822,0.0,
19867,Cs2F12Ga2Ni2,mp-1225948,CsGaNiF6,"['Cs', 'Ga', 'Ni', 'F']",18.0,-82.58695351,4.559638653311993e-06,-1.865174681370263e-14,
24097,Cs16Ga16O32,mp-1213401,CsGaO2,"['Cs', 'Ga', 'O']",64.0,-333.59885233,0.0,0.0,
31802,Cs2Ga2H2O20P6,mp-1200666,CsGaP3HO10,"['Cs', 'Ga', 'P', 'H', 'O']",32.0,-213.20084277,0.0003204003454584381,1.2434497875801753e-14,
20284,Cs2Ga2S4,mp-5038,CsGaS2,"['Cs', 'Ga', 'S']",8.0,-32.81606013,9.539261474955651e-06,0.0,
22274,Cs4Ga4S12,mp-562726,CsGaS3,"['Cs', 'Ga', 'S']",20.0,-82.00241394,0.0006355316376955855,0.0,
7080,Cs4Ga4Se12,mp-510283,CsGaSe3,"['Cs', 'Ga', 'Se']",20.0,-73.43526361,0.00010006718066346565,0.0,
3334,Cs8Ga8Te16,mp-17688,CsGaTe2,"['Cs', 'Ga', 'Te']",32.0,-105.35612802,0.0,0.0,
11091,C8Cs4Gd4O24,mp-541789,CsGd(CO3)2,"['Cs', 'Gd', 'C', 'O']",40.0,-337.47906808,0.002970972560547125,-1.5987211554602254e-14,
12166,Cs2Gd2Mo4O16,mp-1213392,CsGd(MoO4)2,"['Cs', 'Gd', 'Mo', 'O']",24.0,-189.42599039,0.02182737592122308,0.0,
10556,Cs4Gd4O48P16,mp-573001,CsGd(PO3)4,"['Cs', 'Gd', 'P', 'O']",72.0,-560.62783962,0.001587500394936825,-2.842170943040401e-14,
19311,Ag6Cs2Gd4Te10,mp-1190455,CsGd2Ag3Te5,"['Cs', 'Gd', 'Ag', 'Te']",22.0,-126.46530441,0.00141829763671808,0.0,
3587,Cl28Cs4Gd8,mp-1213349,CsGd2Cl7,"['Cs', 'Gd', 'Cl']",40.0,-258.71021428,0.0058916034492249025,6.217248937900877e-15,
24590,Cs2Cu6Gd4Se10,mp-1190996,CsGd2Cu3Se5,"['Cs', 'Gd', 'Cu', 'Se']",22.0,-142.35295837,0.003478726656604536,0.0,
18013,Cd2Cs2Gd2Te6,mp-1104011,CsGdCdTe3,"['Cs', 'Gd', 'Cd', 'Te']",12.0,-63.87463784,0.0,-5.329070518200751e-15,
26326,Cs2Gd2Hg2Se6,mp-22291,CsGdHgSe3,"['Cs', 'Gd', 'Hg', 'Se']",12.0,-66.3973124,0.0,-5.329070518200751e-15,
20114,Cs2Gd2O4,mp-755651,CsGdO2,"['Cs', 'Gd', 'O']",8.0,-70.30183649,0.00834639700195261,0.0,
13420,Cs1Gd1S2,mp-9084,CsGdS2,"['Cs', 'Gd', 'S']",4.0,-30.51666239,0.00865239184936506,0.0,
5263,Cs4Gd4S16Si4,mp-630711,CsGdSiS4,"['Cs', 'Gd', 'Si', 'S']",28.0,-188.24659508,0.0035310019559151584,0.0,
31315,Cs2Gd2Te8,mp-1104966,CsGdTe4,"['Cs', 'Gd', 'Te']",12.0,-66.5960543,0.00333970310872278,0.0,
13493,Cs2Gd2Te6Zn2,mp-1104469,CsGdZnTe3,"['Cs', 'Gd', 'Zn', 'Te']",12.0,-64.66379267,0.0,0.0,
21509,Cs32Ge32,mp-1273,CsGe,"['Cs', 'Ge']",64.0,-190.13996384,0.0,0.0,
14380,B12Cs4Ge4O28,mp-558804,CsGeB3O7,"['Cs', 'Ge', 'B', 'O']",48.0,-348.6035977,0.0,0.0,
18173,Cs1H1,mp-1057286,CsH,"['Cs', 'H']",2.0,-4.55433209,0.0,0.0,
4221,C4Cs4H8N20,mp-1213652,CsH2CN5,"['Cs', 'H', 'C', 'N']",36.0,-240.03089347,0.0005045765983071604,0.0,
24253,Cs8F24H16,mp-1196282,CsH2F3,"['Cs', 'H', 'F']",48.0,-206.73092959,2.4256355803942142e-06,0.0,