,Composition,MaterialId,Reduced Formula,Elements,NSites,Corrected Energy,Decomposition Energy Per Atom All,Decomposition Energy Per Atom MP,Directory
26131,Gd2In2Pt4,mp-22656,GdInPt2,"['Gd', 'In', 'Pt']",8.0,-65.42169874,0.0,0.0,
29152,Gd1In1Pt4,mp-1072097,GdInPt4,"['Gd', 'In', 'Pt']",6.0,-45.91591631,0.0,-7.105427357601002e-15,
7673,Gd3In3Rh3,mp-623043,GdInRh,"['Gd', 'In', 'Rh']",9.0,-79.23714999,0.0068124360069425904,0.0,
25439,Gd1Ir3,mp-510400,GdIr3,"['Gd', 'Ir']",4.0,-42.04099354,0.24748114533447207,0.0,
22706,Ag2Gd1Lu1,mp-1184543,GdLuAg2,"['Gd', 'Lu', 'Ag']",4.0,-25.54167757,0.013952946748656991,0.0,
19479,Gd1Lu1Ru2,mp-1184510,GdLuRu2,"['Gd', 'Lu', 'Ru']",4.0,-38.56209463,0.034177332376538416,0.0,
17868,Ag2Gd1Mg1,mp-1184490,GdMgAg2,"['Gd', 'Mg', 'Ag']",4.0,-22.51994762,-8.881784197001252e-16,-8.881784197001252e-16,
13562,Au3Gd3Mg3,mp-580154,GdMgAu,"['Gd', 'Mg', 'Au']",9.0,-62.9649511,0.0,0.0,
12256,Gd1Mg1Ni4,mp-977381,GdMgNi4,"['Gd', 'Mg', 'Ni']",6.0,-41.07168955,-2.6645352591003757e-15,-2.6645352591003757e-15,
14281,Gd1Mg1Zn2,mp-865883,GdMgZn2,"['Gd', 'Mg', 'Zn']",4.0,-19.53110224,0.0,0.0,
29499,Gd4Mn8O20,mp-703682,GdMn2O5,"['Gd', 'Mn', 'O']",32.0,-285.44637497,0.0036036233740137646,0.0,
6710,B16Gd4Mn4,mp-505546,GdMnB4,"['Gd', 'Mn', 'B']",24.0,-214.82681491,0.004970460292968326,0.0,
12982,Gd2Ge4Mn2O14,mp-1191402,GdMnGe2O7,"['Gd', 'Mn', 'Ge', 'O']",22.0,-177.03454277,0.0,0.0,
10754,Gd4Mn4O12,mp-510575,GdMnO3,"['Gd', 'Mn', 'O']",20.0,-197.05114454,0.005917522755785498,-7.460698725481052e-14,
5988,Gd2Mn2Si2,mp-20553,GdMnSi,"['Gd', 'Mn', 'Si']",6.0,-60.74346116,0.007046741277669355,0.0,
27209,Br4Gd4Mo4O16,mp-1193134,GdMoBrO4,"['Gd', 'Mo', 'Br', 'O']",28.0,-231.65921322,0.005608752885045476,0.0,
24298,Cl2Gd2Mo2O8,mp-559032,GdMoClO4,"['Gd', 'Mo', 'Cl', 'O']",14.0,-117.37571804,0.003966559852120355,0.0,
10758,F4Gd4Mo4O16,mp-555179,GdMoO4F,"['Gd', 'Mo', 'O', 'F']",28.0,-243.88169103,0.008412770947717974,0.0,
11612,Gd1N1,mp-940,GdN,"['Gd', 'N']",2.0,-25.56936045,0.016113453283690404,0.0,
29526,Gd2Nb2O8,mp-19721,GdNbO4,"['Gd', 'Nb', 'O']",12.0,-124.79257511,0.005111620065104461,0.0,
3557,Gd2Ni2,mp-542632,GdNi,"['Gd', 'Ni']",4.0,-41.35347358,0.011514684528808772,0.0,
31605,B20Gd4Ni4O40,mp-505232,GdNi(BO2)5,"['Gd', 'Ni', 'B', 'O']",68.0,-567.34016096,0.0016995659604788216,0.0,
14585,Gd2Ni4,mp-543019,GdNi2,"['Gd', 'Ni']",6.0,-53.75619573,0.00814172525716117,0.0,
25017,B2C1Gd1Ni2,mp-20728,GdNi2B2C,"['Gd', 'Ni', 'B', 'C']",6.0,-51.21064634,0.003636249444987527,-3.552713678800501e-15,
17807,Gd3Ni9,mp-1101986,GdNi3,"['Gd', 'Ni']",12.0,-98.8506684,0.006177388175455434,0.0,
1827,B2Gd2Ni8,mp-1102948,GdNi4B,"['Gd', 'Ni', 'B']",12.0,-93.42427487,0.0050414048763016694,0.0,
3950,Gd1Ni5,mp-21305,GdNi5,"['Gd', 'Ni']",6.0,-44.83774157,0.008138067801107596,0.0,
26511,As1Gd1Ni1,mp-1206977,GdNiAs,"['Gd', 'Ni', 'As']",3.0,-27.68113997,0.007029525380856327,-1.7763568394002505e-15,
18828,Bi1Gd1Ni1,mp-567422,GdNiBi,"['Gd', 'Ni', 'Bi']",3.0,-25.76055756,0.007175952900391636,0.0,
29772,C2Gd1Ni1,mp-1065668,GdNiC2,"['Gd', 'Ni', 'C']",4.0,-39.53502575,0.00569172839355403,0.0,
18193,Gd2Ge6Ni2,mp-1079303,GdNiGe3,"['Gd', 'Ni', 'Ge']",10.0,-73.29480765,0.0,0.0,
17360,Gd4Ni4O12,mp-505604,GdNiO3,"['Gd', 'Ni', 'O']",20.0,-169.3844943,0.013390421718749934,0.0,
16560,Gd4Ni4Pb4,mp-1212834,GdNiPb,"['Gd', 'Ni', 'Pb']",12.0,-99.19003039,0.011955931277999099,0.0,
92,Gd1Ni1Sb1,mp-569197,GdNiSb,"['Gd', 'Ni', 'Sb']",3.0,-26.64939949,0.007656316240234773,0.0,
29142,F2Gd2O2,mp-753721,GdOF,"['Gd', 'O', 'F']",6.0,-64.6849763,0.013629061897784567,0.0,
2228,Gd4Os8,mp-510184,GdOs2,"['Gd', 'Os']",12.0,-149.14225195,0.009102346044922882,0.0,
1147,Gd1P1,mp-510401,GdP,"['Gd', 'P']",2.0,-22.68475956,0.014808444792480557,0.0,
22774,Gd2P10,mp-680742,GdP5,"['Gd', 'P']",12.0,-88.71045074,0.004236730325520632,0.0,
26179,Gd4O56P20,mp-558487,GdP5O14,"['Gd', 'P', 'O']",80.0,-628.3485429,0.0014344979296883054,0.0,
14393,Gd2O8P2,mp-1103324,GdPO4,"['Gd', 'P', 'O']",12.0,-114.55670797,0.004888191831037503,-1.7763568394002505e-14,
13613,Gd2P2Pd2,mp-1077329,GdPPd,"['Gd', 'P', 'Pd']",6.0,-56.8811019,0.007704686181641662,0.0,
28448,Gd1P1Pt1,mp-16340,GdPPt,"['Gd', 'P', 'Pt']",3.0,-29.61794566,0.008030259329427025,0.0,
4943,Gd8P8S8,mp-1191365,GdPS,"['Gd', 'P', 'S']",24.0,-226.74903177,0.0064109738167328345,0.0,
862,Gd8P8S32,mp-1196177,GdPS4,"['Gd', 'P', 'S']",48.0,-338.37491671,0.0034974424023443973,0.0,
19671,Gd2O8Pa2,mp-37014,GdPaO4,"['Gd', 'Pa', 'O']",12.0,-131.02903772,0.005245371477853311,0.0,
23548,Gd1Pa1Ru2,mp-1184525,GdPaRu2,"['Gd', 'Pa', 'Ru']",4.0,-43.5608863,0.08696939637451173,0.0,
14773,Gd1Pa1Tc2,mp-1184505,GdPaTc2,"['Gd', 'Pa', 'Tc']",4.0,-44.65079324,0.0675707405981445,0.0,
5258,Gd1Pb3,mp-1076927,GdPb3,"['Gd', 'Pb']",4.0,-26.54658646,0.0032721891687010896,0.0,
7813,Au1Gd1Pb1,mp-20415,GdPbAu,"['Gd', 'Pb', 'Au']",3.0,-23.11189879,0.005545811455077043,0.0,
30075,Gd2Pd2,mp-11427,GdPd,"['Gd', 'Pd']",4.0,-42.03975191,0.009107852272949302,0.0,
16443,Gd1Pd3,mp-21427,GdPd3,"['Gd', 'Pd']",4.0,-33.08373894,0.0,0.0,
6556,Gd4Pt4,mp-11428,GdPt,"['Gd', 'Pt']",8.0,-90.42525528,0.011384906711425558,0.0,
454,Gd2Pt4,mp-1422,GdPt2,"['Gd', 'Pt']",6.0,-59.00878752,0.0,0.0,
29501,Gd1Pt3,mp-20272,GdPt3,"['Gd', 'Pt']",4.0,-36.06036725,-1.5987211554602254e-14,0.0,
12456,F28Gd4Pt4,mp-17500,GdPtF7,"['Gd', 'Pt', 'F']",36.0,-225.32556266,0.02332527563909892,-6.217248937900877e-15,
27370,B16Gd4Re4,mp-1191130,GdReB4,"['Gd', 'Re', 'B']",24.0,-226.64554629,0.0046529632177740865,0.0,
5407,Gd1Rh1,mp-1742,GdRh,"['Gd', 'Rh']",2.0,-23.04513705,0.011944948510741682,0.0,
3673,Gd2Rh4,mp-20084,GdRh2,"['Gd', 'Rh']",6.0,-61.93006265,0.007918457462563921,0.0,
7188,Gd6Rh18,mp-1191219,GdRh3,"['Gd', 'Rh']",24.0,-230.22380639,0.0,0.0,
16989,C1Gd1Rh3,mp-20182,GdRh3C,"['Gd', 'Rh', 'C']",5.0,-47.70344748,0.005135699312498687,0.0,
18206,Gd2Ru4,mp-646926,GdRu2,"['Gd', 'Ru']",6.0,-66.78972308,0.006896230644532153,0.0,
6992,C4Gd2Ru2,mp-582826,GdRuC2,"['Gd', 'Ru', 'C']",8.0,-85.14615734,0.020595898753661857,0.0,
2019,Gd1S1,mp-510402,GdS,"['Gd', 'S']",2.0,-22.33422957,0.009873946384276522,0.0,
3528,Gd4S8,mp-1095479,GdS2,"['Gd', 'S']",12.0,-110.23450585,0.008040823128254715,0.0,
10968,Cl4Gd4O16S4,mp-558122,GdSClO4,"['Gd', 'S', 'Cl', 'O']",28.0,-219.41287003,0.0038670249469863194,0.0,
24678,F2Gd2S2,mp-3799,GdSF,"['Gd', 'S', 'F']",6.0,-58.08664371,0.008348433994134652,0.0,
16884,Gd2I2S2,mp-556135,GdSI,"['Gd', 'S', 'I']",6.0,-50.40465583,0.02995229473144434,-1.7763568394002505e-15,
2229,F4Gd4O16S4,mp-16801,GdSO4F,"['Gd', 'S', 'O', 'F']",28.0,-229.873453,0.0043798959960934525,0.0,
8200,Gd1Sb1,mp-510403,GdSb,"['Gd', 'Sb']",2.0,-20.53048524,0.012296350947265111,0.0,
3338,Gd2Pd2Sb2,mp-21061,GdSbPd,"['Gd', 'Sb', 'Pd']",6.0,-53.29821089,0.030470405865886008,0.0,
12969,Gd1Pt1Sb1,mp-11839,GdSbPt,"['Gd', 'Sb', 'Pt']",3.0,-27.84425307,0.007191308616537384,0.0,
16003,Gd4S4Sb4,mp-1103678,GdSbS,"['Gd', 'Sb', 'S']",12.0,-106.25812361,0.00793143093750004,0.0,
27424,Gd2Sc2Si2,mp-22480,GdScSi,"['Gd', 'Sc', 'Si']",6.0,-55.65048621,0.005307764031575957,0.0,
15238,Gd1Se1,mp-510404,GdSe,"['Gd', 'Se']",2.0,-21.26764027,0.00876186573242066,0.0,
3038,Gd2Se4,mp-1018707,GdSe2,"['Gd', 'Se']",6.0,-51.7283304,0.01566485317382771,0.0,
22765,Cl4Gd4O12Se4,mp-556551,GdSeClO3,"['Gd', 'Se', 'Cl', 'O']",24.0,-185.3661879,0.0047965429850265195,0.0,
30408,Gd4Si4,mp-601371,GdSi,"['Gd', 'Si']",8.0,-84.4535432,0.010144838037110304,0.0,
23398,Gd2Si4,mp-21192,GdSi2,"['Gd', 'Si']",6.0,-53.40528894,0.033468735766499336,0.0,
1155,Gd2Ni2Si4,mp-1079677,GdSi2Ni,"['Gd', 'Si', 'Ni']",8.0,-67.98574378,0.03524836661132724,0.0,
29824,Gd1Rh3Si2,mp-622508,GdSi2Rh3,"['Gd', 'Si', 'Rh']",6.0,-53.13509786,0.004042883929034957,0.0,
2806,Gd1Ir1Si3,mp-1069477,GdSi3Ir,"['Gd', 'Si', 'Ir']",5.0,-43.25453765,0.006016908476560445,0.0,
18729,Gd2Ni16Si6,mp-1190689,GdSi3Ni8,"['Gd', 'Si', 'Ni']",24.0,-166.8452052,0.01309318242741675,0.0,
21778,Ag3Gd3Si3,mp-1079690,GdSiAg,"['Gd', 'Si', 'Ag']",9.0,-72.25005777,0.0069722188064229584,-7.105427357601002e-15,
25095,Gd2Pd2Si2,mp-1224641,GdSiPd,"['Gd', 'Si', 'Pd']",6.0,-54.80025667,0.036571479479167834,0.0,
24537,Gd2Pt2Si2,mp-1071675,GdSiPt,"['Gd', 'Si', 'Pt']",6.0,-58.0718178,0.007379146980795781,0.0,
10595,Gd4Pt8Si4,mp-1189670,GdSiPt2,"['Gd', 'Si', 'Pt']",16.0,-144.70481061,0.005481273520507202,0.0,
10124,Gd2Ru2Si2,mp-19875,GdSiRu,"['Gd', 'Si', 'Ru']",6.0,-62.46864434,0.005561000909830582,0.0,
26335,Gd2Sn4,mp-1071567,GdSn2,"['Gd', 'Sn']",6.0,-47.81687413,0.002916557353515259,0.0,
5520,Gd1Sn3,mp-19919,GdSn3,"['Gd', 'Sn']",4.0,-27.95722232,0.0,0.0,
2265,Au1Gd1Sn1,mp-20514,GdSnAu,"['Gd', 'Sn', 'Au']",3.0,-23.89034597,0.013005124461263229,0.0,
9595,F28Gd4Sn4,mp-15059,GdSnF7,"['Gd', 'Sn', 'F']",36.0,-240.37643911,0.0037222927886286783,2.4868995751603507e-14,
2273,Gd4Pd4Sn4,mp-1103503,GdSnPd,"['Gd', 'Sn', 'Pd']",12.0,-104.09495595,0.005249617081705793,0.0,
12432,Gd1Pd2Sn1,mp-1184508,GdSnPd2,"['Gd', 'Sn', 'Pd']",4.0,-31.80603334,8.153885030015573e-05,0.0,
25697,Gd3Pt3Sn3,mp-1079739,GdSnPt,"['Gd', 'Sn', 'Pt']",9.0,-82.19346202,0.006523595271266558,0.0,
6018,Gd2Pt4Sn2,mp-1079214,GdSnPt2,"['Gd', 'Sn', 'Pt']",8.0,-68.24292806,0.004686291999512093,0.0,
25410,Gd2O18Ta6,mp-770998,GdTa3O9,"['Gd', 'Ta', 'O']",26.0,-267.20584454,0.0033132677674476696,1.9539925233402755e-14,
24708,Gd2O8Ta2,mp-4875,GdTaO4,"['Gd', 'Ta', 'O']",12.0,-130.28982826,0.005007374003886511,-1.9539925233402755e-14,
31430,Gd1Te1,mp-574283,GdTe,"['Gd', 'Te']",2.0,-20.04268294,0.008212385895996377,0.0,
11548,Gd2Te4,mp-1076964,GdTe2,"['Gd', 'Te']",6.0,-48.03888531,0.008452973235662853,0.0,
22657,Gd1N2Th1,mp-1224571,GdThN2,"['Gd', 'Th', 'N']",4.0,-44.47489324,0.016078312369801395,0.0,
3838,Gd1Ru2Th1,mp-1184613,GdThRu2,"['Gd', 'Th', 'Ru']",4.0,-41.56765276,0.031117027488607008,0.0,
12355,Cd4Gd4O28Sb4Ti4,mp-39684,GdTiCdSbO7,"['Gd', 'Ti', 'Cd', 'Sb', 'O']",44.0,-350.02495584,0.0028194074005671865,0.0,
14643,Cl2Gd2O6Ti2,mp-1212518,GdTiClO3,"['Gd', 'Ti', 'Cl', 'O']",12.0,-114.12020559,0.005584216376947282,0.0,