,Composition,MaterialId,Reduced Formula,Elements,NSites,Corrected Energy,Decomposition Energy Per Atom All,Decomposition Energy Per Atom MP,Directory
22548,Bi1Ca3P1,mp-1013558,Ca3BiP,"['Ca', 'Bi', 'P']",5.0,-20.14066578,0.06227478772558559,0.0,
29753,C6Ca6Cl4,mp-28160,Ca3C3Cl2,"['Ca', 'C', 'Cl']",16.0,-91.06759267,0.0,0.0,
10904,Ca12Cd8,mp-18167,Ca3Cd2,"['Ca', 'Cd']",20.0,-37.21711249,0.006430247005737577,0.0,
24668,Ca3Cd1O4,mp-755287,Ca3CdO4,"['Ca', 'Cd', 'O']",8.0,-46.67051207,0.00036161991210992284,0.0,
3275,Ca6Co2O24Se8,mp-561911,Ca3Co(SeO3)4,"['Ca', 'Co', 'Se', 'O']",40.0,-236.43973285,0.0,2.6645352591003757e-15,
25756,Ca12Cr8Ge12O48,mp-1048585,Ca3Cr2(GeO4)3,"['Ca', 'Cr', 'Ge', 'O']",80.0,-561.32760954,0.0,0.0,
781,Ca12Cr8O48Si12,mp-6414,Ca3Cr2(SiO4)3,"['Ca', 'Cr', 'Si', 'O']",80.0,-610.23860828,1.673121679779399e-05,0.0,
14339,Ca6Cr6O32P8,mp-557821,Ca3Cr3(PO4)4,"['Ca', 'Cr', 'P', 'O']",52.0,-389.00026477,1.8322294177863796e-05,7.105427357601002e-15,
7954,Ca6Cr2N6,mp-8670,Ca3CrN3,"['Ca', 'Cr', 'N']",14.0,-94.2762192,5.255836356088395e-05,-6.217248937900877e-15,
21204,Ca6Cu6O32P8,mp-6118,Ca3Cu3(PO4)4,"['Ca', 'Cu', 'P', 'O']",52.0,-352.59537888,2.5757174171303632e-14,0.0,
17910,Ca6Fe4O36Se12,mp-560990,Ca3Fe2(SeO3)6,"['Ca', 'Fe', 'Se', 'O']",58.0,-342.13564152,0.0,0.0,
31000,Ca12Fe8O48Si12,mp-6672,Ca3Fe2(SiO4)3,"['Ca', 'Fe', 'Si', 'O']",80.0,-584.65537371,2.452174023392928e-05,0.0,
5979,Ca6Fe4O14,mp-1324016,Ca3Fe2O7,"['Ca', 'Fe', 'O']",24.0,-154.39329686,0.00781989922526094,0.0,
15178,Ca6Fe6N10,mp-1246856,Ca3Fe3N5,"['Ca', 'Fe', 'N']",22.0,-158.42300268,0.00012771354225193932,0.0,
11694,Ca6Fe2N6,mp-1029659,Ca3FeN3,"['Ca', 'Fe', 'N']",14.0,-89.8194826,0.0,0.0,
4283,Ca12Ga8O48Si4Sn8,mp-695070,Ca3Ga2Si(SnO6)2,"['Ca', 'Ga', 'Si', 'Sn', 'O']",80.0,-531.62365817,9.552043359395412e-05,0.0,
17730,Ca12Ga12O48Sn8,mp-1214159,Ca3Ga3(SnO6)2,"['Ca', 'Ga', 'Sn', 'O']",80.0,-501.92019342,7.230148828263339e-05,0.0,
15831,Ca12Ga12Ir8,mp-31481,Ca3Ga3Ir2,"['Ca', 'Ga', 'Ir']",32.0,-151.00745319,2.7917738032456896e-05,8.881784197001252e-16,
29396,Ca12Ga12Rh8,mp-607230,Ca3Ga3Rh2,"['Ca', 'Ga', 'Rh']",32.0,-139.78481135,0.005002071078488157,0.0,
8713,Ca9Ga12O27,mp-29226,Ca3Ga4O9,"['Ca', 'Ga', 'O']",48.0,-300.90018508,-2.6645352591003757e-15,-2.6645352591003757e-15,
5647,Ca6Ga10,mp-30473,Ca3Ga5,"['Ca', 'Ga']",16.0,-50.55808713,0.0007819670184328054,0.0,
1636,As12Ca12Ga4,mp-541062,Ca3GaAs3,"['Ca', 'Ga', 'As']",28.0,-120.33128153,0.0019940695898439387,0.0,
28005,Ca6Ga2N6,mp-1029943,Ca3GaN3,"['Ca', 'Ga', 'N']",14.0,-79.14820364,-5.329070518200751e-15,-5.329070518200751e-15,
14560,Ca6Ge26Ir8,mp-1202780,Ca3Ge13Ir4,"['Ca', 'Ge', 'Ir']",40.0,-220.05930603,0.0,0.0,
18796,Ca6Ge26Rh8,mp-1201179,Ca3Ge13Rh4,"['Ca', 'Ge', 'Rh']",40.0,-209.13106097,0.0,0.0,
6001,Al4Ca12Fe4Hf8O48Si4,mp-1227961,Ca3Hf2AlFeSiO12,"['Ca', 'Hf', 'Al', 'Fe', 'Si', 'O']",80.0,-644.42567794,0.0004567662285150931,0.0,
3866,Ca12Fe8Hf8O48Si4,mp-693284,Ca3Hf2Fe2SiO12,"['Ca', 'Hf', 'Fe', 'Si', 'O']",80.0,-636.27289258,0.00027825315039109455,0.0,
6165,Ca12Hf4O36Si8,mp-15003,Ca3HfSi2O9,"['Ca', 'Hf', 'Si', 'O']",60.0,-475.65150281,0.0,0.0,
7631,Ca6Hg4,mp-11288,Ca3Hg2,"['Ca', 'Hg']",10.0,-17.96363977,0.0,0.0,
2029,Au12Ca12In4,mp-606503,Ca3InAu3,"['Ca', 'In', 'Au']",28.0,-95.42120896,0.0002613882868303108,0.0,
30220,Ca12In4P12,mp-614572,Ca3InP3,"['Ca', 'In', 'P']",28.0,-126.76718964,0.0012073297516748127,0.0,
29687,B10Ca6La6O30,mp-6709,Ca3La3(BO3)5,"['Ca', 'La', 'B', 'O']",52.0,-414.39846603,0.0,0.0,
18949,Ca3I60La32Os5,mp-1229300,Ca3La32(OsI12)5,"['Ca', 'La', 'Os', 'I']",100.0,-449.06879666,0.002454101881453674,0.0,
9164,Ca12Ge12Mn8O48,mp-744259,Ca3Mn2(GeO4)3,"['Ca', 'Mn', 'Ge', 'O']",80.0,-550.81190734,0.0,0.0,
29074,As8Ca6Mn6O32,mp-1047495,Ca3Mn3(AsO4)4,"['Ca', 'Mn', 'As', 'O']",52.0,-351.56254958,0.006967249904908712,1.3322676295501878e-14,
23702,Ca6Mn6N10,mp-1245445,Ca3Mn3N5,"['Ca', 'Mn', 'N']",22.0,-166.05688092,0.00015209685369299564,0.0,
8778,Ca6Co2Mn2O12,mp-1232815,Ca3MnCoO6,"['Ca', 'Mn', 'Co', 'O']",22.0,-146.50850884,0.0,0.0,
12898,Ca6Mn2N6,mp-14763,Ca3MnN3,"['Ca', 'Mn', 'N']",14.0,-92.57410103,0.0,0.0,
1276,Ca6Mo2N6,mp-1029719,Ca3MoN3,"['Ca', 'Mo', 'N']",14.0,-95.30847196,0.06841193729575945,-6.217248937900877e-15,
23115,Ca24N16,mp-844,Ca3N2,"['Ca', 'N']",40.0,-213.07809486,2.78622646483484e-05,0.0,
4147,Ca12Co4Nb8O36,mp-561965,Ca3Nb2CoO9,"['Ca', 'Nb', 'Co', 'O']",60.0,-463.44858155,-1.4210854715202004e-14,-1.4210854715202004e-14,
28580,B2Ca3Ni7,mp-8308,Ca3Ni7B2,"['Ca', 'Ni', 'B']",12.0,-63.87153136,0.001409620655111965,0.0,
26119,Ca3Cl3P1,mp-29342,Ca3PCl3,"['Ca', 'P', 'Cl']",7.0,-31.04635645,0.0,0.0,
23473,Ca12I12P4,mp-27272,Ca3PI3,"['Ca', 'P', 'I']",28.0,-106.61039781,0.0,0.0,
12218,Ca3N1P1,mp-11824,Ca3PN,"['Ca', 'P', 'N']",5.0,-24.85703172,0.0,0.0,
11283,Ca3O1Pb1,mp-20273,Ca3PbO,"['Ca', 'Pb', 'O']",5.0,-22.4369709,0.006363122856445358,0.0,
2152,Ca12Pd4,mp-1106061,Ca3Pd,"['Ca', 'Pd']",16.0,-51.87794,0.0015471688842771947,0.0,
15644,Ca9Pd6,mp-1104661,Ca3Pd2,"['Ca', 'Pd']",15.0,-58.73777215,0.0008894494401041619,0.0,
27519,Ca3O14Pr2Sb3,mp-1214039,Ca3Pr2Sb3O14,"['Ca', 'Pr', 'Sb', 'O']",22.0,-149.30961263,0.0077955061317975805,0.0,
15094,Ca9Pt6,mp-984698,Ca3Pt2,"['Ca', 'Pt']",15.0,-67.28770867,0.0,0.0,
31519,Ca54N72Re18,mp-1030245,Ca3ReN4,"['Ca', 'Re', 'N']",144.0,-1050.78373978,0.0,0.0,
24244,Ca6O12Re2,mp-9457,Ca3ReO6,"['Ca', 'Re', 'O']",20.0,-146.52881226,3.0332402314314777e-06,-3.552713678800501e-15,
25109,Ca6N6Rh2,mp-1247259,Ca3RhN3,"['Ca', 'Rh', 'N']",14.0,-85.01677643,0.058931284096332526,0.0,
21349,Ca12I12Sb4,mp-1214080,Ca3SbI3,"['Ca', 'Sb', 'I']",28.0,-99.1400164,0.0002425107735772869,0.0,
20655,Ca3N1Sb1,mp-1013548,Ca3SbN,"['Ca', 'Sb', 'N']",5.0,-23.94493085,0.0019015619335940315,0.0,
12746,Ca3P1Sb1,mp-1013550,Ca3SbP,"['Ca', 'Sb', 'P']",5.0,-20.47612761,0.10641849960644567,0.0,
22609,Ca12O48Sc8Si12,mp-6255,Ca3Sc2(SiO4)3,"['Ca', 'Sc', 'Si', 'O']",80.0,-632.10375306,2.4662677732933957e-05,7.105427357601002e-15,
26134,Ca6Co2O12Sc2,mp-561991,Ca3ScCoO6,"['Ca', 'Sc', 'Co', 'O']",22.0,-153.33127789,0.000884074957371972,0.0,
5798,Ca12Cl8O16Si4,mp-540868,Ca3Si(ClO2)2,"['Ca', 'Si', 'Cl', 'O']",40.0,-255.05375506,1.852584374972821e-05,0.0,
12949,Ca12Ni12Si8,mp-542138,Ca3Si2Ni3,"['Ca', 'Si', 'Ni']",32.0,-153.0889659,0.0,0.0,
9967,Ca12O36Si8Sn4,mp-15095,Ca3Si2SnO9,"['Ca', 'Si', 'Sn', 'O']",60.0,-428.83490212,0.0,0.0,
20399,Ca12Mo8O48Si12,mp-1170750,Ca3Si3(MoO6)2,"['Ca', 'Si', 'Mo', 'O']",80.0,-600.14248118,7.344081640603406e-05,5.861977570020827e-14,
4339,Ca6O2Si2,mp-1205330,Ca3SiO,"['Ca', 'Si', 'O']",10.0,-47.53503399,0.0,0.0,
19757,Ca6Ir8Sn26,mp-1200211,Ca3Sn13Ir4,"['Ca', 'Sn', 'Ir']",40.0,-204.50237473,0.0,0.0,
3853,Ca6Rh8Sn26,mp-4363,Ca3Sn13Rh4,"['Ca', 'Sn', 'Rh']",40.0,-195.3182753,0.0,0.0,
27595,Ca6H4Sn2,mp-984605,Ca3SnH2,"['Ca', 'Sn', 'H']",12.0,-41.17908693,9.006443685066756e-06,0.0,
28191,Ca3O1Sn1,mp-29241,Ca3SnO,"['Ca', 'Sn', 'O']",5.0,-23.12416745,0.0,0.0,
1733,Ca12F8O48Ta16,mp-560378,Ca3Ta4(O6F)2,"['Ca', 'Ta', 'O', 'F']",84.0,-732.06151044,0.0,0.0,
29491,Ca3Ga3O14Si2Ta1,mp-6853,Ca3TaGa3(SiO7)2,"['Ca', 'Ta', 'Ga', 'Si', 'O']",23.0,-168.34982154,0.0,0.0,
18281,Ca6O12Te2,mp-5279,Ca3TeO6,"['Ca', 'Te', 'O']",20.0,-125.69427654,3.7466945309816424e-05,-2.6645352591003757e-15,
13011,Ca12Cr8O48Ti12,mp-1214263,Ca3Ti3Cr2O12,"['Ca', 'Ti', 'Cr', 'O']",80.0,-646.82059469,0.0001660649101573597,0.0,
29957,As12Be4Ca6O40Si4Ti2,mp-558370,Ca3TiBe2Si2(As3O10)2,"['Ca', 'Ti', 'Be', 'Si', 'As', 'O']",68.0,-472.0708014,1.6308829273725678e-05,3.552713678800501e-15,
29062,Ca12O24Tl8,mp-9216,Ca3Tl2O6,"['Ca', 'Tl', 'O']",44.0,-247.18452968,5.329070518200751e-15,0.0,
31742,Ca3N4U1,mp-1247754,Ca3UN4,"['Ca', 'U', 'N']",8.0,-60.90940277,0.0,0.0,
3577,Ca6O12U2,mp-14252,Ca3UO6,"['Ca', 'U', 'O']",20.0,-158.14348021,7.105427357601002e-15,0.0,
6113,Ca12O48Si12V8,mp-1163934,Ca3V2(SiO4)3,"['Ca', 'V', 'Si', 'O']",80.0,-611.76649115,2.842170943040401e-14,0.0,
26421,Ca21O56V14,mp-532028,Ca3V2O8,"['Ca', 'V', 'O']",91.0,-658.08626076,0.0025958424381871126,0.0,
16547,Ca6N6V2,mp-9029,Ca3VN3,"['Ca', 'V', 'N']",14.0,-95.07177656,0.0,0.0,
21088,Ca12Cl8O20W4,mp-558558,Ca3WCl2O5,"['Ca', 'W', 'Cl', 'O']",44.0,-281.95866649,3.339209517161379e-05,0.0,
14074,Ca6O12W2,mp-781505,Ca3WO6,"['Ca', 'W', 'O']",20.0,-141.82681579,3.418263667676058e-06,-3.552713678800501e-15,
20613,Ca3O12Ti4Y1,mp-1227620,Ca3YTi4O12,"['Ca', 'Y', 'Ti', 'O']",20.0,-167.09888636,0.0008602901542964503,0.0,
7930,Ca3Cu2P4Zn2,mp-569617,Ca3Zn2(CuP2)2,"['Ca', 'Zn', 'Cu', 'P']",11.0,-47.07759417,3.02241583813867e-05,0.0,
4032,Ca12O48Te8Zn12,mp-14778,Ca3Zn3(TeO6)2,"['Ca', 'Zn', 'Te', 'O']",80.0,-454.50263941,0.00012738945507795307,0.0,
26453,Al4Ca12Fe4O48Si4Zr8,mp-1227925,Ca3Zr2AlFeSiO12,"['Ca', 'Zr', 'Al', 'Fe', 'Si', 'O']",80.0,-627.04355445,0.00042145072241872583,-2.3803181647963356e-13,
20162,Ca12O36Si8Zr4,mp-15004,Ca3ZrSi2O9,"['Ca', 'Zr', 'Si', 'O']",60.0,-467.38141975,0.0,0.0,
11732,Ca4H12Rh3,mp-697126,Ca4(H4Rh)3,"['Ca', 'H', 'Rh']",19.0,-81.75911219,0.0008380907337075527,0.0,
80,Al16Ca43Pb13,mp-1228746,Ca43Al16Pb13,"['Ca', 'Al', 'Pb']",72.0,-224.60286077,0.0,0.0,
27274,Al51Ca4Cr7,mp-30174,Ca4Al51Cr7,"['Ca', 'Al', 'Cr']",62.0,-276.98768953,0.00025959112399220885,0.0,
16462,Al6Ca4Cr1O16,mp-1227669,Ca4Al6CrO16,"['Ca', 'Al', 'Cr', 'O']",27.0,-193.47932106,0.004504755662615878,2.7533531010703882e-14,
22645,Al24Ca16Mo4O64,mp-556889,Ca4Al6MoO16,"['Ca', 'Al', 'Mo', 'O']",108.0,-779.17414854,4.3307867692021773e-07,0.0,
1853,Al6Ca4O12S1,mp-8876,Ca4Al6SO12,"['Ca', 'Al', 'S', 'O']",23.0,-163.0153935,0.0,0.0,
22416,Al24Ca16O64S4,mp-1019575,Ca4Al6SO16,"['Ca', 'Al', 'S', 'O']",108.0,-767.18194536,1.2034788773540583e-05,0.0,
3067,As2Ca4O1,mp-8789,Ca4As2O,"['Ca', 'As', 'O']",7.0,-34.29084549,0.0006608537234926715,0.0,
14518,As24Ca32,mp-1194887,Ca4As3,"['Ca', 'As']",56.0,-241.07497524,0.0012393468233815597,0.0,
38,As14Ca8Ir16,mp-31234,Ca4As7Ir8,"['Ca', 'As', 'Ir']",38.0,-247.04619241,0.00010469706414539814,0.0,
9236,Al4Be4Ca8H4O56Si18,mp-1214670,Ca4Be2Al2Si9(HO14)2,"['Ca', 'Be', 'Al', 'Si', 'H', 'O']",94.0,-699.89584258,0.0018935619398279258,0.0,
31206,Bi2Ca4O1,mp-551873,Ca4Bi2O,"['Ca', 'Bi', 'O']",7.0,-31.2789788,0.00025719422084247157,0.0,
9880,C4Ca16N16,mp-5251,Ca4CN4,"['Ca', 'C', 'N']",36.0,-232.99419641,0.0,0.0,
6841,Au5Ca4Cd3,mp-1227574,Ca4Cd3Au5,"['Ca', 'Cd', 'Au']",12.0,-34.88400631,0.006539650030064514,0.0,
8487,Ca8Cl12O2,mp-23326,Ca4Cl6O,"['Ca', 'Cl', 'O']",22.0,-103.10252999,0.0,0.0,
3888,B3Ca4Er1O10,mp-1214050,Ca4ErB3O10,"['Ca', 'Er', 'B', 'O']",18.0,-136.32652896,0.00010196098947012899,-1.127986593019159e-13,
24332,B3Ca4Gd1O10,mp-6943,Ca4GdB3O10,"['Ca', 'Gd', 'B', 'O']",18.0,-145.54139886,0.0016831837217878842,3.552713678800501e-15,
4117,Ca8Hf2N8,mp-1029730,Ca4HfN4,"['Ca', 'Hf', 'N']",18.0,-123.60835412,0.0,0.0,
11628,Ca8In4N2,mp-20419,Ca4In2N,"['Ca', 'In', 'N']",14.0,-52.67266512,0.0037634459312219093,0.0,
26507,Au20Ca8In6,mp-645719,Ca4In3Au10,"['Ca', 'In', 'Au']",34.0,-118.7047636,0.001055824149815976,0.0,
2690,B3Ca4La1O10,mp-6076,Ca4LaB3O10,"['Ca', 'La', 'B', 'O']",18.0,-136.43124494,-3.552713678800501e-15,-3.552713678800501e-15,
21779,B6C2Ca8Mn6O30,mp-532650,Ca4Mn3B3CO15,"['Ca', 'Mn', 'B', 'C', 'O']",52.0,-392.40679209,3.2050966044749885e-05,0.0,
13612,Ca8Nb4O72S18,mp-2713764,Ca4Nb2(SO4)9,"['Ca', 'Nb', 'S', 'O']",102.0,-678.08862499,0.00966078345434962,0.0,
4812,Ca16Nb8O36,mp-31016,Ca4Nb2O9,"['Ca', 'Nb', 'O']",60.0,-466.40489299,0.0,0.0,
95,B3Ca4Nd1O10,mp-1214008,Ca4NdB3O10,"['Ca', 'Nd', 'B', 'O']",18.0,-136.01423131,0.00024500263455529137,-7.105427357601002e-15,
15218,C5Ca4Ni3,mp-28742,Ca4Ni3C5,"['Ca', 'Ni', 'C']",12.0,-73.69105544,8.889114583077173e-06,0.0,
19815,Ca8Ge6Ni8,mp-1192309,Ca4Ni4Ge3,"['Ca', 'Ni', 'Ge']",22.0,-101.50469194,4.440892098500626e-15,4.440892098500626e-15,
27668,Ca4O1P2,mp-5380,Ca4P2O,"['Ca', 'P', 'O']",7.0,-35.50821163,0.0,0.0,
21034,Ca16O36P8,mp-5263,Ca4P2O9,"['Ca', 'P', 'O']",60.0,-428.37177602,0.0,0.0,
21854,Ca8O38P12,mp-559537,Ca4P6O19,"['Ca', 'P', 'O']",58.0,-420.87425053,0.0,0.0,
26738,Ca8Ir16P14,mp-31233,Ca4P7Ir8,"['Ca', 'P', 'Ir']",38.0,-267.11434228,1.9460713404306773e-05,0.0,
3797,Ca8O12Pd2,mp-10299,Ca4PdO6,"['Ca', 'Pd', 'O']",22.0,-136.39127778,0.018988651213160068,0.0,
14822,Ca4O1Sb2,mp-13660,Ca4Sb2O,"['Ca', 'Sb', 'O']",7.0,-32.62964195,0.00013183411690853575,0.0,
8987,Ca16F8O28Si8,mp-560163,Ca4Si2O7F2,"['Ca', 'Si', 'O', 'F']",60.0,-424.21264126,2.235510415893316e-06,0.0,
11956,Ca8Pd8Si6,mp-17185,Ca4Si3Pd4,"['Ca', 'Si', 'Pd']",22.0,-107.86432556,0.0011000616592689028,0.0,
13526,Ca16N16Si4,mp-1019576,Ca4SiN4,"['Ca', 'Si', 'N']",36.0,-225.44874143,0.00016121149850345518,2.3092638912203256e-14,
26456,Ca32P32Si8,mp-1214132,Ca4SiP4,"['Ca', 'Si', 'P']",72.0,-355.74642583,0.0,0.0,
887,B3Ca4O10Sm1,mp-6388,Ca4SmB3O10,"['Ca', 'Sm', 'B', 'O']",18.0,-136.14437042,0.0,3.552713678800501e-15,
14493,Ca8N8Sn2,mp-1029681,Ca4SnN4,"['Ca', 'Sn', 'N']",18.0,-103.69139979,0.0007082242860239063,0.0,
3499,Ca8O72S18Ta4,mp-2713941,Ca4Ta2(SO4)9,"['Ca', 'Ta', 'S', 'O']",102.0,-689.43346432,0.0106781272625609,0.0,
2136,Ca16O36Ta8,mp-769317,Ca4Ta2O9,"['Ca', 'Ta', 'O']",60.0,-489.53256914,3.9977223959652974e-05,3.552713678800501e-15,
29914,Ca8N8Ti2,mp-568469,Ca4TiN4,"['Ca', 'Ti', 'N']",18.0,-119.22579778,5.4379518228842016e-05,0.0,
6769,B3Ca4O10Y1,mp-1214020,Ca4YB3O10,"['Ca', 'Y', 'B', 'O']",18.0,-138.07411917,0.000386730681423586,0.0,
18202,Ca4Zn51,mp-1227465,Ca4Zn51,"['Ca', 'Zn']",55.0,-80.70976853,0.005950871448286321,0.0,
28373,Ca8N8Zr2,mp-1029660,Ca4ZrN4,"['Ca', 'Zr', 'N']",18.0,-119.90033946,0.0,0.0,
10685,Al4Ca10Sb12,mp-8439,Ca5(AlSb3)2,"['Ca', 'Al', 'Sb']",26.0,-104.62523207,0.0035150070545375556,0.0,
20007,Ca20Co8N16,mp-569383,Ca5(CoN2)2,"['Ca', 'Co', 'N']",44.0,-260.38692865,1.4672017044858876e-05,0.0,
30771,Ca20Cu8N16,mp-1246246,Ca5(CuN2)2,"['Ca', 'Cu', 'N']",44.0,-235.47389119,0.0,0.0,
1643,As12Ca10Ga4,mp-17558,Ca5(GaAs3)2,"['Ca', 'Ga', 'As']",26.0,-112.70412635,0.0034158416316110163,0.0,
27649,Ca10Ga4N8,mp-28489,Ca5(GaN2)2,"['Ca', 'Ga', 'N']",22.0,-115.8350547,0.0009057389559687934,2.6645352591003757e-15,
18639,Ca10Ga4Sb12,mp-17985,Ca5(GaSb3)2,"['Ca', 'Ga', 'Sb']",26.0,-101.32553287,0.004115726078725679,0.0,
24967,Ca5Ge6Pd6,mp-1105294,Ca5(GePd)6,"['Ca', 'Ge', 'Pd']",17.0,-82.25748506,0.0,0.0,
12510,Ca30I12O72,mp-1196062,Ca5(IO6)2,"['Ca', 'I', 'O']",114.0,-654.09520425,0.0,0.0,
17496,Ca10In4Sb12,mp-649479,Ca5(InSb3)2,"['Ca', 'In', 'Sb']",26.0,-100.01581994,0.003528466099759431,0.0,
19209,Ca10N12Os4,mp-1029899,Ca5(OsN3)2,"['Ca', 'Os', 'N']",26.0,-179.72618948,0.11286233505994847,0.0,
8540,Ca10P12Pd12,mp-667294,Ca5(PPd)6,"['Ca', 'P', 'Pd']",34.0,-180.57911924,0.006837605414607317,0.0,
2370,Ca30O72Re12,mp-558966,Ca5(ReO6)2,"['Ca', 'Re', 'O']",114.0,-845.20581397,0.0,0.0,
4948,Ca10N12Ru4,mp-1029860,Ca5(RuN3)2,"['Ca', 'Ru', 'N']",26.0,-171.71913251,0.07345433151517611,0.0,
11938,Au12Ca10Si8,mp-1227364,Ca5(Si2Au3)2,"['Ca', 'Si', 'Au']",30.0,-123.44962432,0.006437086434841532,0.0,
815,Ca10N12Si4,mp-571333,Ca5(SiN3)2,"['Ca', 'Si', 'N']",26.0,-171.61388847,0.0,0.0,
1927,As12Ca10Sn4,mp-18670,Ca5(SnAs3)2,"['Ca', 'Sn', 'As']",26.0,-114.6005663,0.005977184421952053,0.0,
3666,Ag6Ca10,mp-31172,Ca5Ag3,"['Ca', 'Ag']",16.0,-41.59508219,0.006117528530273475,0.0,
28892,Al8Ca20N32Si8,mp-866314,Ca5Al2(SiN4)2,"['Ca', 'Al', 'Si', 'N']",68.0,-462.70263384,0.002819356730238809,0.0,
30208,As6Ca10,mp-10047,Ca5As3,"['Ca', 'As']",16.0,-65.74392591,0.0001860347387694361,0.0,
13726,As6Ca10Cl2O24,mp-1227203,Ca5As3ClO12,"['Ca', 'As', 'Cl', 'O']",42.0,-267.90104603,0.0,1.2434497875801753e-14,
11419,As6Ca10H2O26,mp-1227603,Ca5As3HO13,"['Ca', 'As', 'H', 'O']",44.0,-282.91836649,0.00039322652343720677,0.0,
1367,As6Ca10F2O24,mp-557482,Ca5As3O12F,"['Ca', 'As', 'O', 'F']",42.0,-272.21434589,0.0,0.0,
24867,Au4Ca10,mp-30367,Ca5Au2,"['Ca', 'Au']",14.0,-40.91919785,0.0006740566824774419,0.0,
20293,Au6Ca10,mp-30368,Ca5Au3,"['Ca', 'Au']",16.0,-50.69963701,0.0016649617315676046,0.0,
8949,Au8Ca10,mp-571264,Ca5Au4,"['Ca', 'Au']",18.0,-59.99883871,9.058320909272055e-05,0.0,
30173,B3Ca5F1O9,mp-6632,Ca5B3O9F,"['Ca', 'B', 'O', 'F']",18.0,-130.69504607,0.0,0.0,
14142,Bi12Ca20,mp-27145,Ca5Bi3,"['Ca', 'Bi']",32.0,-113.62375689,0.0006828157696534554,0.0,
8052,Bi6Ca5Cl12O8,mp-1227157,Ca5Bi6(Cl3O2)4,"['Ca', 'Bi', 'Cl', 'O']",31.0,-152.49607443,0.0,0.0,
11672,Ca10Cd2Cu4,mp-1105558,Ca5CdCu2,"['Ca', 'Cd', 'Cu']",16.0,-41.25054097,0.007726714124755674,0.0,
7653,Ca5Co3O16Si4,mp-1227139,Ca5Co3(SiO4)4,"['Ca', 'Co', 'Si', 'O']",28.0,-200.10350754,0.004421205170898723,0.0,
14063,Ca20Ir4,mp-570356,Ca5Ir,"['Ca', 'Ir']",24.0,-81.18715587,0.0001551646573894061,0.0,
17510,Ca10N10Nb2,mp-675101,Ca5NbN5,"['Ca', 'Nb', 'N']",22.0,-146.46832267,5.580207741218146e-06,0.0,
29178,B8Ca10Ni30,mp-28170,Ca5Ni15B4,"['Ca', 'Ni', 'B']",48.0,-262.54146715,0.0,0.0,
12134,Ca5Ge8Ni17,mp-1193893,Ca5Ni17Ge8,"['Ca', 'Ni', 'Ge']",30.0,-158.29512353,0.0,0.0,
28338,Ca5Ir19P12,mp-18360,Ca5P12Ir19,"['Ca', 'P', 'Ir']",36.0,-268.8564676,0.0,0.0,
29938,Ca5P12Rh19,mp-10582,Ca5P12Rh19,"['Ca', 'P', 'Rh']",36.0,-248.32794369,6.98862424046709e-05,0.0,
4186,Ca20Cl4O48P12,mp-555164,Ca5P3ClO12,"['Ca', 'P', 'Cl', 'O']",84.0,-592.77396295,0.0,0.0,
12051,Ca10H2P6,mp-1105373,Ca5P3H,"['Ca', 'P', 'H']",18.0,-78.60948797,0.0,0.0,
23245,Ca10H2O26P6,mp-41472,Ca5P3HO13,"['Ca', 'P', 'H', 'O']",44.0,-311.9185191,0.00047090712890884845,0.0,
6169,Ca10F2O24P6,mp-6473,Ca5P3O12F,"['Ca', 'P', 'O', 'F']",42.0,-301.38433293,2.6645352591003757e-14,2.6645352591003757e-14,
17261,Ca5P8,mp-28879,Ca5P8,"['Ca', 'P']",13.0,-65.08300332,2.1473131004867696e-05,0.0,
6881,Ca10Pd4,mp-1104669,Ca5Pd2,"['Ca', 'Pd']",14.0,-47.79466619,0.00026240383928533006,0.0,
25727,Ca10Pt4,mp-1103570,Ca5Pt2,"['Ca', 'Pt']",14.0,-54.18583141,0.0,0.0,
20554,Ca20Rh4,mp-1214063,Ca5Rh,"['Ca', 'Rh']",24.0,-75.07730511,0.0003154960066735768,0.0,
14302,Ca20Sb12,mp-17564,Ca5Sb3,"['Ca', 'Sb']",32.0,-121.21019634,0.0,0.0,
9600,Ca20O48P8Si4,mp-1227400,Ca5Si(PO6)2,"['Ca', 'Si', 'P', 'O']",80.0,-580.61150035,0.000947871601562511,0.0,
9241,Ca10Si6,mp-793,Ca5Si3,"['Ca', 'Si']",16.0,-60.3667059,0.0001567822814942943,0.0,
22474,Ca10H2Sn6,mp-1106280,Ca5Sn3H,"['Ca', 'Sn', 'H']",18.0,-62.74477168,0.0003416317236331068,0.0,
219,Al2Ca10O50Si10Ta2Ti6,mp-720394,Ca5TaTi3Al(SiO5)5,"['Ca', 'Ta', 'Ti', 'Al', 'Si', 'O']",80.0,-643.16685486,0.00021149628804195686,0.0,
18715,Ca10Cl2O24V6,mp-1202595,Ca5V3ClO12,"['Ca', 'V', 'Cl', 'O']",42.0,-296.37865533,0.0,0.0,
90,Ca10F2O24V6,mp-556759,Ca5V3O12F,"['Ca', 'V', 'O', 'F']",42.0,-300.64189646,0.0,0.0,
28304,Ca20N20V4,mp-1247440,Ca5VN5,"['Ca', 'V', 'N']",44.0,-290.62108367,4.418322086863213e-06,0.0,
2656,Ca10Zn6,mp-2786,Ca5Zn3,"['Ca', 'Zn']",16.0,-30.82808815,0.0054080867782593245,0.0,
2264,Ca65Ga24Sn19,mp-1229248,Ca65Ga24Sn19,"['Ca', 'Ga', 'Sn']",108.0,-339.96243903,0.0006139678573497953,0.0,
19248,Ag16Ca6N1,mp-542496,Ca6Ag16N,"['Ca', 'Ag', 'N']",23.0,-72.91659011,0.00024702954568578406,0.0,
20275,Al86Ca12W8,mp-1214183,Ca6Al43W4,"['Ca', 'Al', 'W']",106.0,-472.06381979,0.0,0.0,
13681,Al14Ca12O32,mp-721592,Ca6Al7O16,"['Ca', 'Al', 'O']",58.0,-410.61383338,0.0004252444585137738,0.0,
10265,Al14Ca12F2O32,mp-1227337,Ca6Al7O16F,"['Ca', 'Al', 'O', 'F']",60.0,-425.68749867,0.0005405169583321268,0.0,
9826,Ca6Cr2H1N6,mp-1104786,Ca6Cr2HN6,"['Ca', 'Cr', 'H', 'N']",15.0,-98.8382896,0.00019111813801853117,0.0,
13045,Ca6Cu2Sn7,mp-579544,Ca6Cu2Sn7,"['Ca', 'Cu', 'Sn']",15.0,-56.50681908,0.0006966703014326114,0.0,
2439,Ca12Co6Fe2O24,mp-1227494,Ca6Fe(CoO4)3,"['Ca', 'Fe', 'Co', 'O']",44.0,-279.73463695,0.025376389708360314,0.0,
1321,Ca12Fe2N10,mp-16916,Ca6FeN5,"['Ca', 'Fe', 'N']",24.0,-143.14675491,0.0,0.0,
27679,Ca12Ga2N10,mp-17875,Ca6GaN5,"['Ca', 'Ga', 'N']",24.0,-132.62507005,0.0,0.0,
19200,Ca12Mn2N10,mp-17577,Ca6MnN5,"['Ca', 'Mn', 'N']",24.0,-146.18456018,0.0,0.0,
10699,Ca6F1N1Sn2,mp-989590,Ca6Sn2NF,"['Ca', 'Sn', 'N', 'F']",10.0,-42.98857944,6.534701562443956e-05,0.0,
3177,Ca12N4Te6,mp-1246515,Ca6Te3N2,"['Ca', 'Te', 'N']",22.0,-105.33959901,0.0,0.0,