,Composition,MaterialId,Reduced Formula,Elements,NSites,Corrected Energy,Decomposition Energy Per Atom All,Decomposition Energy Per Atom MP,Directory
7974,Ba8Cl28Tb4,mp-1214626,Ba2TbCl7,"['Ba', 'Tb', 'Cl']",40.0,-183.41792185,0.005798401503906092,-2.6645352591003757e-15,
15849,Ba2Ir1O6Tb1,mp-12410,Ba2TbIrO6,"['Ba', 'Tb', 'Ir', 'O']",10.0,-70.58440497,0.0,0.0,
7693,Ba2Mo1O6Tb1,mp-1205597,Ba2TbMoO6,"['Ba', 'Tb', 'Mo', 'O']",10.0,-71.95042961,0.041113252378906395,0.0,
6102,Ba2Nb1O6Tb1,mp-6254,Ba2TbNbO6,"['Ba', 'Tb', 'Nb', 'O']",10.0,-78.65795374,4.341384179795682e-05,0.0,
28279,Ba2O6Pa1Tb1,mp-1206245,Ba2TbPaO6,"['Ba', 'Tb', 'Pa', 'O']",10.0,-80.89715115,0.0,0.0,
15461,Ba2O6Re1Tb1,mp-13931,Ba2TbReO6,"['Ba', 'Tb', 'Re', 'O']",10.0,-76.81225936,0.0,-2.842170943040401e-14,
15897,Ba2O6Sb1Tb1,mp-6265,Ba2TbSbO6,"['Ba', 'Tb', 'Sb', 'O']",10.0,-69.01060506,9.017149023371474e-05,0.0,
3495,Ba2O6Ta1Tb1,mp-1207064,Ba2TbTaO6,"['Ba', 'Tb', 'Ta', 'O']",10.0,-81.62087229,0.000172609867188811,0.0,
23455,Ba2O6Tb1W1,mp-1214561,Ba2TbWO6,"['Ba', 'Tb', 'W', 'O']",10.0,-73.96879218,0.000586052996093045,0.0,
4876,Ba4O2Te2,mp-1078191,Ba2TeO,"['Ba', 'Te', 'O']",8.0,-41.15179223,0.00012454302734354883,0.0,
4742,Ba4O18P4Te2,mp-560742,Ba2TeP2O9,"['Ba', 'Te', 'P', 'O']",28.0,-192.24742103,5.440814313573128e-05,0.0,
28359,Ba2Cu2S5Th1,mp-1078630,Ba2ThCu2S5,"['Ba', 'Th', 'Cu', 'S']",10.0,-55.67831845,0.00047253732421381756,0.0,
3841,Ba2Cu2Se5Th1,mp-1078405,Ba2ThCu2Se5,"['Ba', 'Th', 'Cu', 'Se']",10.0,-51.2843452,0.0015906417431645892,0.0,
28523,Ba4S12Th2,mp-1189897,Ba2ThS6,"['Ba', 'Th', 'S']",18.0,-101.82039594,5.3605546875168386e-05,5.329070518200751e-15,
11202,Ba4Ge4O16Ti2,mp-6289,Ba2Ti(GeO4)2,"['Ba', 'Ti', 'Ge', 'O']",26.0,-185.39170231,0.0,0.0,
2194,Ba4O16Si4Ti2,mp-6081,Ba2Ti(SiO4)2,"['Ba', 'Ti', 'Si', 'O']",26.0,-202.8778192,6.179169171005583e-06,0.0,
9395,Ba4O44Ti26,mp-28917,Ba2Ti13O22,"['Ba', 'Ti', 'O']",74.0,-649.53696299,5.595964738169812e-05,0.0,
27513,Ba2O13Ti6,mp-7733,Ba2Ti6O13,"['Ba', 'Ti', 'O']",21.0,-179.87969628,0.002726388545386982,0.0,
4232,Ba8O16Ti4,mp-3397,Ba2TiO4,"['Ba', 'Ti', 'O']",28.0,-210.28369766,0.0,0.0,
29493,Ba8S16Ti4,mp-17908,Ba2TiS4,"['Ba', 'Ti', 'S']",28.0,-163.86185852,0.0,0.0,
23313,Ba4H14O14Tl2,mp-757586,Ba2Tl(HO)7,"['Ba', 'Tl', 'H', 'O']",34.0,-178.16398083,0.0013082635879957394,-9.769962616701378e-15,
11534,Ba8O20Tl8,mp-18327,Ba2Tl2O5,"['Ba', 'Tl', 'O']",36.0,-190.27375313,0.0,0.0,
6247,Ba2Cd1Tl1,mp-866292,Ba2TlCd,"['Ba', 'Tl', 'Cd']",4.0,-8.63965366,0.0,0.0,
18037,Ba8F28Tl4,mp-1214714,Ba2TlF7,"['Ba', 'Tl', 'F']",40.0,-200.57603584,0.013985908199218855,-2.6645352591003757e-15,
14593,Ba2Hg1Tl1,mp-1183313,Ba2TlHg,"['Ba', 'Tl', 'Hg']",4.0,-8.41020794,0.0,0.0,
26237,Ba2O6Sb1Tl1,mp-1228332,Ba2TlSbO6,"['Ba', 'Tl', 'Sb', 'O']",10.0,-58.71826291,7.862843358186211e-05,0.0,
26608,Ba2Tl1Zn1,mp-984724,Ba2TlZn,"['Ba', 'Tl', 'Zn']",4.0,-8.63713317,0.03586604971903329,0.0,
25855,Ba2Cu4O8Tm1,mp-6710,Ba2Tm(CuO2)4,"['Ba', 'Tm', 'Cu', 'O']",15.0,-89.79535451,0.0,0.0,
28545,Ba2Mo1O6Tm1,mp-1205595,Ba2TmMoO6,"['Ba', 'Tm', 'Mo', 'O']",10.0,-72.21545402,0.0388211690449225,0.0,
13286,Ba2Nb1O6Tm1,mp-12642,Ba2TmNbO6,"['Ba', 'Tm', 'Nb', 'O']",10.0,-78.91184774,0.00046959611718833116,0.0,
29617,Ba2O6Pa1Tm1,mp-1206036,Ba2TmPaO6,"['Ba', 'Tm', 'Pa', 'O']",10.0,-81.18842887,0.0,0.0,
24843,Ba2O6Re1Tm1,mp-13934,Ba2TmReO6,"['Ba', 'Tm', 'Re', 'O']",10.0,-77.05112818,0.0,0.0,
8050,Ba2O6Ru1Tm1,mp-12729,Ba2TmRuO6,"['Ba', 'Tm', 'Ru', 'O']",10.0,-71.92628262,0.0,0.0,
11392,Ba2O6Ta1Tm1,mp-1206029,Ba2TmTaO6,"['Ba', 'Tm', 'Ta', 'O']",10.0,-81.87985049,0.00015064435937439669,0.0,
7455,As16Ba16O80U8,mp-1196334,Ba2U(AsO5)2,"['Ba', 'U', 'As', 'O']",120.0,-874.02713627,0.0,-1.7763568394002505e-15,
29797,Ba4Cu8Se12U2,mp-1192549,Ba2U(Cu2Se3)2,"['Ba', 'U', 'Cu', 'Se']",26.0,-131.14891382,0.0,0.0,
417,Ba4O20P4U2,mp-1192547,Ba2U(PO5)2,"['Ba', 'U', 'P', 'O']",30.0,-237.22724692,0.0015693694309888429,0.0,
30110,Ba4O14U4,mp-583034,Ba2U2O7,"['Ba', 'U', 'O']",22.0,-193.49015493,0.0,0.0,
15664,Ba2Cd1O6U1,mp-1079615,Ba2UCdO6,"['Ba', 'U', 'Cd', 'O']",10.0,-72.71870312,0.02221173145703137,0.0,
7458,Ba2Cr1O6U1,mp-1205611,Ba2UCrO6,"['Ba', 'U', 'Cr', 'O']",10.0,-81.17395519,0.0,-7.105427357601002e-15,
25301,Ba2Cu2S5U1,mp-555358,Ba2UCu2S5,"['Ba', 'U', 'Cu', 'S']",10.0,-57.70209624,0.029647645287108837,0.0,
25105,Ba2Cu2Se5U1,mp-1078441,Ba2UCu2Se5,"['Ba', 'U', 'Cu', 'Se']",10.0,-53.50901224,0.0,0.0,
20071,Ba2Fe1O6U1,mp-504699,Ba2UFeO6,"['Ba', 'U', 'Fe', 'O']",10.0,-78.00682202,0.03975189834179815,0.0,
2473,Ba2In1O6U1,mp-1205569,Ba2UInO6,"['Ba', 'U', 'In', 'O']",10.0,-75.19682179,0.005874168656249346,0.0,
7394,Ba2Mn1O6U1,mp-19852,Ba2UMnO6,"['Ba', 'U', 'Mn', 'O']",10.0,-80.79413126,0.0,0.0,
3760,Ba2Ni1O6U1,mp-19093,Ba2UNiO6,"['Ba', 'U', 'Ni', 'O']",10.0,-74.7788164,4.977479492218606e-05,0.0,
21080,Ba4S12U2,mp-1190025,Ba2US6,"['Ba', 'U', 'S']",18.0,-105.93267513,0.014656829154461093,0.0,
30939,Ba2O6Ti1U1,mp-1205557,Ba2UTiO6,"['Ba', 'U', 'Ti', 'O']",10.0,-83.67598722,0.0,0.0,
29870,Ba2O6U1Zn1,mp-1078725,Ba2UZnO6,"['Ba', 'U', 'Zn', 'O']",10.0,-73.72234182,0.006467739268073203,0.0,
31397,Ba4O16Si4V2,mp-19179,Ba2V(SiO4)2,"['Ba', 'V', 'Si', 'O']",26.0,-195.79379384,4.586382210902684e-06,-2.842170943040401e-14,
1354,Ba4Fe2H2O18V4,mp-1192499,Ba2V2FeHO9,"['Ba', 'V', 'Fe', 'H', 'O']",30.0,-210.08985902,0.00016713016015668103,0.0,
10561,Ba8O28V8,mp-19474,Ba2V2O7,"['Ba', 'V', 'O']",44.0,-322.32171771,0.0,0.0,
19951,Ba8Bi4O44V12,mp-559941,Ba2V3BiO11,"['Ba', 'V', 'Bi', 'O']",68.0,-487.43756148,9.73036075269107e-06,0.0,
20512,Ba4H2O18V6,mp-1192628,Ba2V3HO9,"['Ba', 'V', 'H', 'O']",30.0,-216.98380988,0.0005125222291741949,0.0,
3648,Ba2H1O22P6V3,mp-728780,Ba2V3P6HO22,"['Ba', 'V', 'P', 'H', 'O']",34.0,-251.8111952,0.0005442932904404785,-2.842170943040401e-14,
25009,Ba8Cd12O60V16,mp-558221,Ba2V4Cd3O15,"['Ba', 'V', 'Cd', 'O']",96.0,-631.45414739,1.968966308663056e-05,0.0,
31616,Ba4O48P8V10,mp-560918,Ba2V5(PO6)4,"['Ba', 'V', 'P', 'O']",70.0,-517.73797591,0.009711755973219383,0.0,
21895,Ba8N12V4,mp-17696,Ba2VN3,"['Ba', 'V', 'N']",24.0,-176.61966813,8.359110026034955e-05,0.0,
7096,Ba8O16V4,mp-19096,Ba2VO4,"['Ba', 'V', 'O']",28.0,-195.12446869,0.0,0.0,
13027,Ba8O36P8V4,mp-554810,Ba2VP2O9,"['Ba', 'V', 'P', 'O']",56.0,-413.9730791,-2.842170943040401e-14,0.0,
10189,Ba8O20W4,mp-28403,Ba2WO5,"['Ba', 'W', 'O']",32.0,-226.48303565,0.0,-1.4210854715202004e-14,
9158,Ba2Cu4O8Y1,mp-6790,Ba2Y(CuO2)4,"['Ba', 'Y', 'Cu', 'O']",15.0,-91.58381472,0.0,0.0,
31208,Ag5Ba2S6Y1,mp-1104423,Ba2YAg5S6,"['Ba', 'Y', 'Ag', 'S']",14.0,-63.74136345,0.00015025214146202615,0.0,
2639,B4Ba4Cl2O12Y2,mp-866310,Ba2YB2ClO6,"['Ba', 'Y', 'B', 'Cl', 'O']",24.0,-180.54960729,0.0004500990820304196,0.0,
30927,Ba8Bi4O24Y4,mp-1523166,Ba2YBiO6,"['Ba', 'Y', 'Bi', 'O']",40.0,-271.64641198,0.006569357482422156,0.0,
17130,Ba8C8F12O24Y4,mp-8985,Ba2YC2(O2F)3,"['Ba', 'Y', 'C', 'O', 'F']",56.0,-413.85416968,0.0,3.552713678800501e-15,
9495,Ba8Co4O20Y4,mp-1205054,Ba2YCoO5,"['Ba', 'Y', 'Co', 'O']",36.0,-249.70088146,0.0004732431358496214,0.0,
8011,Ba8Fe4O20Y4,mp-1204162,Ba2YFeO5,"['Ba', 'Y', 'Fe', 'O']",36.0,-256.81770536,0.0007906415842011683,0.0,
22471,Ba2Ir1O6Y1,mp-15888,Ba2YIrO6,"['Ba', 'Y', 'Ir', 'O']",10.0,-72.36718889,6.129310547997591e-06,0.0,
18673,Ba2Mo1O6Y1,mp-1205669,Ba2YMoO6,"['Ba', 'Y', 'Mo', 'O']",10.0,-73.77313984,0.0406796927578128,0.0,
2962,Ba2Nb1O6Y1,mp-7251,Ba2YNbO6,"['Ba', 'Y', 'Nb', 'O']",10.0,-80.46105763,0.0028827440800771598,0.0,
30146,Ba2O6Os1Y1,mp-1078303,Ba2YOsO6,"['Ba', 'Y', 'Os', 'O']",10.0,-75.76723188,6.5605351569075765e-06,0.0,
28507,Ba2O6Pa1Y1,mp-1205895,Ba2YPaO6,"['Ba', 'Y', 'Pa', 'O']",10.0,-82.74427264,2.8924964842858003e-05,0.0,
13406,Ba2O6Re1Y1,mp-6430,Ba2YReO6,"['Ba', 'Y', 'Re', 'O']",10.0,-78.62456144,0.0002538291445315366,0.0,
8868,Ba2O6Ru1Y1,mp-6428,Ba2YRuO6,"['Ba', 'Y', 'Ru', 'O']",10.0,-73.4983541,0.0,0.0,
5303,Ba2O6Sb1Y1,mp-6492,Ba2YSbO6,"['Ba', 'Y', 'Sb', 'O']",10.0,-70.80126729,5.0742923828117625e-05,0.0,
24341,Ba2O6Ta1Y1,mp-12385,Ba2YTaO6,"['Ba', 'Y', 'Ta', 'O']",10.0,-83.4541453,1.1316210937195592e-06,0.0,
24198,Ba2O6U1Y1,mp-1205713,Ba2YUO6,"['Ba', 'Y', 'U', 'O']",10.0,-83.63286307,0.02006575598828242,0.0,
30275,Ba8O24W4Y4,mp-1520624,Ba2YWO6,"['Ba', 'Y', 'W', 'O']",40.0,-302.80576899,0.007435792339842706,0.0,
30398,Ba2Zn1,mp-1018178,Ba2Zn,"['Ba', 'Zn']",3.0,-5.5310782,0.016305684891849248,0.0,
10228,B16Ba16O48Zn8,mp-559138,Ba2Zn(BO3)2,"['Ba', 'Zn', 'B', 'O']",88.0,-607.95012126,2.0411596236336038e-05,0.0,
7343,Ba2Cr7Ga2O22Sn2Zn2,mp-1214629,Ba2Zn2Cr7Ga2(SnO11)2,"['Ba', 'Zn', 'Cr', 'Ga', 'Sn', 'O']",37.0,-256.191885,4.2177206502458375e-05,0.0,
19263,Ba8O44P8Te4Zn8,mp-1195039,Ba2Zn2TeP2O11,"['Ba', 'Zn', 'Te', 'P', 'O']",72.0,-458.84994139,0.0006065438726121641,0.0,
26462,Ba4O60P20Zn6,mp-555980,Ba2Zn3(PO3)10,"['Ba', 'Zn', 'P', 'O']",90.0,-621.08911518,1.1838711805545188e-05,0.0,
17428,Ba2F18Zn7,mp-541827,Ba2Zn7F18,"['Ba', 'Zn', 'F']",27.0,-118.70273152,0.00016694873119149634,0.0,
27445,As4Ba4Zn2,mp-1078636,Ba2ZnAs2,"['Ba', 'Zn', 'As']",10.0,-38.33403321,5.462577734371976e-05,0.0,
24070,Ba4Bi4Zn2,mp-1079130,Ba2ZnBi2,"['Ba', 'Zn', 'Bi']",10.0,-33.1639885,0.0029985041259763534,0.0,
13793,Ba4Cu6F28Zn2,mp-1045620,Ba2ZnCu3F14,"['Ba', 'Zn', 'Cu', 'F']",40.0,-180.19465609,0.024982345709962495,0.0,
12415,Ba2Mo1O6Zn1,mp-1206097,Ba2ZnMoO6,"['Ba', 'Zn', 'Mo', 'O']",10.0,-63.71015072,0.008346949060553221,0.0,
19713,Ba2N2Zn1,mp-9307,Ba2ZnN2,"['Ba', 'Zn', 'N']",5.0,-23.88817662,0.0,0.0,
29713,Ba8O12Zn4,mp-17911,Ba2ZnO3,"['Ba', 'Zn', 'O']",24.0,-132.34583369,6.77699544304744e-06,0.0,
20390,Ba2O6Os1Zn1,mp-1205691,Ba2ZnOsO6,"['Ba', 'Zn', 'Os', 'O']",10.0,-64.84295232,0.01005476818639739,0.0,
3691,Ba8S12Zn4,mp-5587,Ba2ZnS3,"['Ba', 'Zn', 'S']",24.0,-109.89732137,0.0001556718798827461,0.0,
2245,Ba4Sb4Zn2,mp-1079149,Ba2ZnSb2,"['Ba', 'Zn', 'Sb']",10.0,-35.44998104,0.00023177270898466773,0.0,
31294,Ba4O14Si4Zn2,mp-558629,Ba2ZnSi2O7,"['Ba', 'Zn', 'Si', 'O']",24.0,-167.05884345,0.0008496523925778376,-1.3322676295501878e-14,
20994,Ba2O6Te1Zn1,mp-1078410,Ba2ZnTeO6,"['Ba', 'Zn', 'Te', 'O']",10.0,-57.48166103,0.0,0.0,
25482,Ba2O6W1Zn1,mp-548615,Ba2ZnWO6,"['Ba', 'Zn', 'W', 'O']",10.0,-65.7298842,7.0939160154992464e-06,0.0,
25599,B1Ba2Cl17Zr6,mp-568105,Ba2Zr6BCl17,"['Ba', 'Zr', 'B', 'Cl']",26.0,-143.2363453,0.0008844853440503897,0.0,
21296,Ba8F32Zr4,mp-5900,Ba2ZrF8,"['Ba', 'Zr', 'F']",44.0,-279.09273337,-2.398081733190338e-14,0.0,
9423,Ba2O4Zr1,mp-8335,Ba2ZrO4,"['Ba', 'Zr', 'O']",7.0,-53.44519773,0.0,0.0,
20550,Ba2O6Sn1Zr1,mp-1228067,Ba2ZrSnO6,"['Ba', 'Zr', 'Sn', 'O']",10.0,-73.35414924,0.0,0.0,
4180,Al8As16Ba12,mp-1202519,Ba3(AlAs2)2,"['Ba', 'Al', 'As']",36.0,-161.92915139,0.0,0.0,
26647,Al8Ba12N16,mp-17133,Ba3(AlN2)2,"['Ba', 'Al', 'N']",36.0,-217.8391488,0.0,0.0,
14629,Al8Ba12P16,mp-1202948,Ba3(AlP2)2,"['Ba', 'Al', 'P']",36.0,-174.33152174,0.0,0.0,
26011,Al8Ba6Pt8,mp-1190157,Ba3(AlPt)4,"['Ba', 'Al', 'Pt']",22.0,-109.03052494,0.0002796988276809742,0.0,
9504,Al2Ba3Si2,mp-9578,Ba3(AlSi)2,"['Ba', 'Al', 'Si']",7.0,-26.65742517,6.696659388927273e-05,0.0,
5663,Al2Ba3Sn2,mp-7377,Ba3(AlSn)2,"['Ba', 'Al', 'Sn']",7.0,-24.90493561,0.0,0.0,
22290,As2Ba3O8,mp-9783,Ba3(AsO4)2,"['Ba', 'As', 'O']",13.0,-84.15855335,4.333090432240283e-06,0.0,
14916,B8Ba12N16,mp-30905,Ba3(BN2)2,"['Ba', 'B', 'N']",36.0,-246.4821721,0.0,0.0,
13577,B4Ba6O12,mp-755417,Ba3(BO3)2,"['Ba', 'B', 'O']",22.0,-158.68228697,8.521141335204874e-05,0.0,
22100,As4Ba3Cd2,mp-1080464,Ba3(CdAs2)2,"['Ba', 'Cd', 'As']",9.0,-33.84586725,0.0,0.0,
18143,Ba3Cd2Sb4,mp-571069,Ba3(CdSb2)2,"['Ba', 'Cd', 'Sb']",9.0,-31.04756057,0.0,0.0,
22492,Ba6Ga4S12,mp-29302,Ba3(GaS3)2,"['Ba', 'Ga', 'S']",22.0,-106.67253724,0.0,0.0,
1234,Ba3Ge16Ir4,mp-1190530,Ba3(Ge4Ir)4,"['Ba', 'Ge', 'Ir']",23.0,-123.87378138,0.0,4.440892098500626e-15,
3574,Ba3Ge16Rh4,mp-1192163,Ba3(Ge4Rh)4,"['Ba', 'Ge', 'Rh']",23.0,-118.63928735,0.0,0.0,
15510,Ba6Ge4N4,mp-29092,Ba3(GeN)2,"['Ba', 'Ge', 'N']",14.0,-71.51520546,0.0,0.0,
8368,Ba3H12Ir2,mp-643047,Ba3(H6Ir)2,"['Ba', 'H', 'Ir']",17.0,-73.5010599,0.0,0.0,
20707,Ba6In4P8,mp-19913,Ba3(InP2)2,"['Ba', 'In', 'P']",18.0,-80.01907333,3.552713678800501e-15,0.0,
29069,As4Ba3Li4,mp-15753,Ba3(LiAs)4,"['Ba', 'Li', 'As']",11.0,-42.23445796,0.00354359454545472,0.0,
22412,Ba3Bi4Li4,mp-1095231,Ba3(LiBi)4,"['Ba', 'Li', 'Bi']",11.0,-37.42536781,0.001759401083978318,3.1086244689504383e-15,
14797,Ba3Li4Sb4,mp-1095406,Ba3(LiSb)4,"['Ba', 'Li', 'Sb']",11.0,-39.62475704,0.0019424086505681615,0.0,
2251,Ba3Li4Sn8,mp-30254,Ba3(LiSn2)4,"['Ba', 'Li', 'Sn']",15.0,-53.25434152,0.004378483220703444,0.0,
13109,Ba12Na8Sb16,mp-1228324,Ba3(NaSb2)2,"['Ba', 'Na', 'Sb']",36.0,-128.74957378,0.00624886580033035,0.0,
22505,Ba3O8P2,mp-3857,Ba3(PO4)2,"['Ba', 'P', 'O']",13.0,-93.50238815,4.2656550487407685e-06,0.0,
8366,Ba12P8S32,mp-554255,Ba3(PS4)2,"['Ba', 'P', 'S']",52.0,-264.15177074,0.000302856675180152,0.0,
5024,Ba6O56Rh28,mp-758025,Ba3(RhO2)14,"['Ba', 'Rh', 'O']",90.0,-591.42218434,0.006021844176131275,0.0,
26231,Ba9O18Sb6,mp-31238,Ba3(SbO3)2,"['Ba', 'Sb', 'O']",33.0,-203.64907724,1.1546319456101628e-14,1.1546319456101628e-14,
10917,Ba6P12Si8,mp-27887,Ba3(Si2P3)2,"['Ba', 'Si', 'P']",26.0,-136.9574123,0.0,0.0,
19097,As8Ba6Si4,mp-11692,Ba3(SiAs2)2,"['Ba', 'Si', 'As']",18.0,-85.01604017,-7.993605777301127e-15,0.0,
22964,As16Ba12Sn8,mp-17470,Ba3(SnAs2)2,"['Ba', 'Sn', 'As']",36.0,-159.21130382,3.552713678800501e-15,0.0,
17265,Ba12P16Sn8,mp-601867,Ba3(SnP2)2,"['Ba', 'Sn', 'P']",36.0,-169.25277484,0.0001793535384155831,0.0,
24580,Ba9S24Ta6,mp-29354,Ba3(TaS4)2,"['Ba', 'Ta', 'S']",39.0,-247.56449192,0.0,-6.217248937900877e-15,
13348,As4Ba3Zn2,mp-1079622,Ba3(ZnAs2)2,"['Ba', 'Zn', 'As']",9.0,-34.60091778,0.0038186572659868467,0.0,
9449,Ba32O96Pb25Sb7,mp-686499,Ba32Sb7Pb25O96,"['Ba', 'Sb', 'Pb', 'O']",160.0,-948.1397018,0.014829085429687083,0.0,
29002,Ag6Ba9,mp-12612,Ba3Ag2,"['Ba', 'Ag']",15.0,-37.7009615,0.007865275966389973,0.0,
4903,Al4B20Ba6H8O46,mp-1201953,Ba3Al2B10H4O23,"['Ba', 'Al', 'B', 'H', 'O']",84.0,-622.37068594,0.005779094557291309,0.0,
12001,Al8Ba12F48,mp-3361,Ba3Al2F12,"['Ba', 'Al', 'F']",68.0,-399.62782027,0.0,0.0,
24519,Al48Ba72O144,mp-1196869,Ba3Al2O6,"['Ba', 'Al', 'O']",264.0,-1792.75319968,0.0,0.0,
2992,Al18As30Ba18,mp-1203016,Ba3Al3As5,"['Ba', 'Al', 'As']",66.0,-300.31051409,2.6852832622381584e-05,0.0,
17695,Al6Ba6Ga4,mp-569218,Ba3Al3Ga2,"['Ba', 'Al', 'Ga']",16.0,-51.59043704,0.005062912860672952,0.0,
11710,Al18Ba18P30,mp-1196964,Ba3Al3P5,"['Ba', 'Al', 'P']",66.0,-325.41308641,0.00024737017874087996,0.0,
4165,Al4As12Ba12,mp-1192376,Ba3AlAs3,"['Ba', 'Al', 'As']",28.0,-123.23991181,0.00011587939662405233,0.0,
21823,Al4Ba12H4O16,mp-707218,Ba3AlHO4,"['Ba', 'Al', 'H', 'O']",36.0,-218.42796679,5.649161892318233e-05,0.0,
12165,Al4Ba12P12,mp-1192373,Ba3AlP3,"['Ba', 'Al', 'P']",28.0,-131.29568447,0.0,0.0,
23226,Al4Ba12Sb12,mp-18439,Ba3AlSb3,"['Ba', 'Al', 'Sb']",28.0,-113.13690345,0.0016634540562217026,0.0,
12136,As28Ba6,mp-524,Ba3As14,"['Ba', 'As']",34.0,-157.48349623,0.0,0.0,
28244,Au6Ba9,mp-1104164,Ba3Au2,"['Ba', 'Au']",15.0,-46.00440916,0.001879924815103795,0.0,
23024,B4Ba12Br12O12,mp-1200496,Ba3B(BrO)3,"['Ba', 'B', 'Br', 'O']",40.0,-231.19183898,0.0007118868281255075,0.0,
20578,B6Ba6Br2O18Pb4,mp-1194742,Ba3B3Pb2BrO9,"['Ba', 'B', 'Pb', 'Br', 'O']",36.0,-243.85270827,0.0003705710590269362,1.2434497875801753e-14,
22916,B6Ba6Cl2O18Pb4,mp-1195317,Ba3B3Pb2ClO9,"['Ba', 'B', 'Pb', 'Cl', 'O']",36.0,-245.16378169,0.00026873235243041194,-1.2434497875801753e-14,
29595,B12Ba6H4O26,mp-1199009,Ba3B6H2O13,"['Ba', 'B', 'H', 'O']",48.0,-354.38974942,0.0008142312402341645,0.0,
16694,B12Ba6F4O22,mp-1195844,Ba3B6O11F2,"['Ba', 'B', 'O', 'F']",44.0,-332.34150122,0.00025192690047237676,0.0,
25451,As2B2Ba6O6,mp-9793,Ba3BAsO3,"['Ba', 'B', 'As', 'O']",16.0,-100.30699136,1.1656860365860666e-07,0.0,
26285,B2Ba6O6P2,mp-9712,Ba3BPO3,"['Ba', 'B', 'P', 'O']",16.0,-101.19610203,1.302110595347017e-06,0.0,
13906,Ba12Bi4Cl12O12,mp-556855,Ba3Bi(ClO)3,"['Ba', 'Bi', 'Cl', 'O']",40.0,-213.41870603,0.0001078222724606448,0.0,
10021,Ba6Bi4O32P8,mp-555231,Ba3Bi2(PO4)4,"['Ba', 'Bi', 'P', 'O']",50.0,-351.28958148,1.543094687495028e-05,0.0,
3403,Ba6Bi4O18Ru2,mp-1228299,Ba3Bi2RuO9,"['Ba', 'Bi', 'Ru', 'O']",30.0,-188.90845736,0.0008596610794260329,0.0,
10764,Ba6Bi4O18Te2,mp-556407,Ba3Bi2TeO9,"['Ba', 'Bi', 'Te', 'O']",30.0,-180.09863817,1.0413050792301703e-05,-9.14823772291129e-14,
17434,Ba6Bi12Pb2Se26,mp-669415,Ba3Bi6PbSe13,"['Ba', 'Bi', 'Pb', 'Se']",46.0,-196.1077123,0.00026642333559756537,-1.7763568394002505e-15,
29692,Ba6Bi2N2,mp-567666,Ba3BiN,"['Ba', 'Bi', 'N']",10.0,-43.73694738,1.4106816408343548e-06,0.0,
6755,Ba6Ca4N12Si4,mp-1019520,Ba3Ca2(SiN3)2,"['Ba', 'Ca', 'Si', 'N']",26.0,-167.27615326,0.00011037266225333298,0.0,
22727,Ba12Ca12Mo8N32,mp-1228693,Ba3Ca3(MoN4)2,"['Ba', 'Ca', 'Mo', 'N']",64.0,-460.20510996,0.011725793280944252,0.0,
22394,Ba6Bi4Ca2O18,mp-1228277,Ba3CaBi2O9,"['Ba', 'Ca', 'Bi', 'O']",30.0,-180.33987788,8.371340755264356e-05,0.0,
18457,Ba6Ca2Ir4O18,mp-17448,Ba3CaIr2O9,"['Ba', 'Ca', 'Ir', 'O']",30.0,-198.96907465,0.0,0.0,
1446,Ba3Ca1Nb2O9,mp-1214569,Ba3CaNb2O9,"['Ba', 'Ca', 'Nb', 'O']",15.0,-115.86153175,0.00017707034505320962,0.0,
10243,Ba6Ca2O18Ru4,mp-6443,Ba3CaRu2O9,"['Ba', 'Ca', 'Ru', 'O']",30.0,-203.64721437,0.006289664229166547,-1.2434497875801753e-14,
12155,Ba6Ca2O18Sb4,mp-554817,Ba3CaSb2O9,"['Ba', 'Ca', 'Sb', 'O']",30.0,-191.60720549,0.0003865585364568602,0.0,
30803,Ba3Ca1O9Ta2,mp-1228141,Ba3CaTa2O9,"['Ba', 'Ca', 'Ta', 'O']",15.0,-121.64029824,0.0,0.0,
28744,Ba6Cd2Ir4O18,mp-1214618,Ba3CdIr2O9,"['Ba', 'Cd', 'Ir', 'O']",30.0,-187.4999517,0.00020853138672460858,0.0,
23988,Ba6Ce2Ir4O18,mp-1214640,Ba3CeIr2O9,"['Ba', 'Ce', 'Ir', 'O']",30.0,-212.90378979,0.0005768108736905475,0.0,
4346,Ba6Ce2O18Ru4,mp-6301,Ba3CeRu2O9,"['Ba', 'Ce', 'Ru', 'O']",30.0,-217.26321315,-5.417888360170764e-14,0.0,
524,Ba6C6Co2N6,mp-861914,Ba3Co(CN)3,"['Ba', 'Co', 'C', 'N']",20.0,-142.90755612,0.0009044083554679005,0.0,
28450,Ba6Co6O28P4Te2,mp-1228226,Ba3Co3Te(PO7)2,"['Ba', 'Co', 'Te', 'P', 'O']",46.0,-306.70559867,0.0,1.3322676295501878e-14,
10300,Ba6Co2Ir4O18,mp-1214637,Ba3CoIr2O9,"['Ba', 'Co', 'Ir', 'O']",30.0,-196.24392245,0.009743594521475885,2.4868995751603507e-14,
5400,Ba12Co4O36Sb8,mp-19337,Ba3CoSb2O9,"['Ba', 'Co', 'Sb', 'O']",60.0,-377.61573577,0.00023267531772042105,0.0,
1366,Ba6Cr4Mo2O18,mp-557755,Ba3Cr2MoO9,"['Ba', 'Cr', 'Mo', 'O']",30.0,-214.8370421,0.0,0.0,
18532,Ba6Cr4O16,mp-1281162,Ba3Cr2O8,"['Ba', 'Cr', 'O']",26.0,-178.67495958,0.00020498479116515256,0.0,
30991,Ba6Cr4O18W2,mp-541512,Ba3Cr2WO9,"['Ba', 'Cr', 'W', 'O']",30.0,-218.91123386,0.0,0.0,
3072,Ba6Cr2N6,mp-12905,Ba3CrN3,"['Ba', 'Cr', 'N']",14.0,-91.40102119,2.1721121701290258e-07,0.0,
26783,Ag1Ba3Cu17P6,mp-1228373,Ba3Cu17AgP6,"['Ba', 'Cu', 'Ag', 'P']",27.0,-119.15558264,0.0029804009924765396,0.0,
13583,Ba6Cu2O18Ru4,mp-22472,Ba3CuRu2O9,"['Ba', 'Cu', 'Ru', 'O']",30.0,-197.03625434,0.000259327989582836,0.0,
23294,B18Ba18Dy6O54,mp-1214848,Ba3Dy(BO3)3,"['Ba', 'Dy', 'B', 'O']",96.0,-729.44012321,0.0020337990616861035,0.0,
24095,Ba12Dy8P16S64,mp-560798,Ba3Dy2(PS4)4,"['Ba', 'Dy', 'P', 'S']",100.0,-528.39513928,3.681032499969206e-05,0.0,
27256,Ba6Dy4Mo2O18,mp-1228336,Ba3Dy2MoO9,"['Ba', 'Dy', 'Mo', 'O']",30.0,-217.29177355,0.014739282545573218,0.0,
27278,Ba6Dy4O18W2,mp-1228348,Ba3Dy2WO9,"['Ba', 'Dy', 'W', 'O']",30.0,-221.65558965,0.01454547358072844,0.0,
244,Ba6Dy2O18Ru4,mp-541720,Ba3DyRu2O9,"['Ba', 'Dy', 'Ru', 'O']",30.0,-213.53497694,0.0,0.0,
28993,B18Ba18Er6O54,mp-1214885,Ba3Er(BO3)3,"['Ba', 'Er', 'B', 'O']",96.0,-729.93266437,0.0023019122835288286,0.0,
15601,Ba12Er8P16S64,mp-560534,Ba3Er2(PS4)4,"['Ba', 'Er', 'P', 'S']",100.0,-527.46340928,0.0,0.0,
20683,Ba6Er4Mo2O18,mp-1228244,Ba3Er2MoO9,"['Ba', 'Er', 'Mo', 'O']",30.0,-218.54227274,0.00034276006640610035,0.0,
28443,Ba6Er2Mn4O18,mp-555498,Ba3ErMn2O9,"['Ba', 'Er', 'Mn', 'O']",30.0,-209.98883298,0.001532223420572798,0.0,
29816,Ba6Er2O18Ru4,mp-541721,Ba3ErRu2O9,"['Ba', 'Er', 'Ru', 'O']",30.0,-213.80557391,5.967322916689e-06,0.0,