,Composition,MaterialId,Reduced Formula,Elements,NSites,Corrected Energy,Decomposition Energy Per Atom All,Decomposition Energy Per Atom MP,Directory
25507,Cl20Cs8Dy4,mp-540695,Cs2DyCl5,"['Cs', 'Dy', 'Cl']",32.0,-132.75485299,0.00013536188476770405,1.7763568394002505e-15,
12016,Ag1Cl6Cs2Er1,mp-1113595,Cs2ErAgCl6,"['Cs', 'Er', 'Ag', 'Cl']",10.0,-38.789766,8.043554687198196e-06,0.0,
14309,Cl20Cs8Er4,mp-1214000,Cs2ErCl5,"['Cs', 'Er', 'Cl']",32.0,-132.64134986,0.00011463907959807784,7.993605777301127e-15,
16494,Cs16Er8F8O80Si32,mp-1196674,Cs2ErSi4O10F,"['Cs', 'Er', 'Si', 'O', 'F']",144.0,-1054.9231317,0.00012779499782933357,-7.105427357601002e-15,
29008,Cs8F20Fe4,mp-1213714,Cs2FeF5,"['Cs', 'Fe', 'F']",32.0,-153.51023335,0.005437299334716705,0.0,
15894,Cs4Fe2H24O28S4,mp-24220,Cs2FeH12(SO7)2,"['Cs', 'Fe', 'H', 'S', 'O']",62.0,-334.02462698,0.0,0.0,
30035,Cs8Fe4O16,mp-17443,Cs2FeO4,"['Cs', 'Fe', 'O']",28.0,-140.59066064,2.936679129472708e-05,0.0,
8073,B8Cs8Ga8O28,mp-556330,Cs2Ga2B2O7,"['Cs', 'Ga', 'B', 'O']",52.0,-334.98599449,0.00011542954176757547,0.0,
10596,As10Cs4Ga6O36,mp-572921,Cs2Ga3As5O18,"['Cs', 'Ga', 'As', 'O']",56.0,-330.2842479,0.0024835525582398432,0.0,
10309,Ag1Cs2F6Ga1,mp-1113583,Cs2GaAgF6,"['Cs', 'Ga', 'Ag', 'F']",10.0,-43.28478024,2.823167968735163e-06,0.0,
1093,Cs8Ga4O40P12,mp-562504,Cs2GaP3O10,"['Cs', 'Ga', 'P', 'O']",64.0,-424.70277968,0.0,0.0,
19013,Cs4Ga2H6O28P8,mp-1200899,Cs2GaP4H3O14,"['Cs', 'Ga', 'P', 'H', 'O']",48.0,-308.48381231,0.0009728687451175944,0.0,
2502,Cs16Ga8Sb16,mp-29372,Cs2GaSb2,"['Cs', 'Ga', 'Sb']",40.0,-121.53081102,0.0,0.0,
2981,Ag1Cl6Cs2Gd1,mp-1113592,Cs2GdAgCl6,"['Cs', 'Gd', 'Ag', 'Cl']",10.0,-48.2387565,0.0025809936767577923,-2.6645352591003757e-15,
110,Cl20Cs8Gd4,mp-1213731,Cs2GdCl5,"['Cs', 'Gd', 'Cl']",32.0,-170.39612271,0.003466425932620254,2.6645352591003757e-15,
10492,Cs2Ge1O12Te3,mp-1226191,Cs2Ge(TeO4)3,"['Cs', 'Ge', 'Te', 'O']",18.0,-98.11098669,0.0,0.0,
3959,Cs8Ge8S20,mp-572598,Cs2Ge2S5,"['Cs', 'Ge', 'S']",36.0,-155.52296741,0.0,0.0,
28302,B4Cs2Ge1O9,mp-1226455,Cs2GeB4O9,"['Cs', 'Ge', 'B', 'O']",16.0,-114.00725294,0.0,0.0,
15342,Cs2F6Ge1,mp-8217,Cs2GeF6,"['Cs', 'Ge', 'F']",9.0,-42.62132026,-2.6645352591003757e-15,-2.6645352591003757e-15,
11908,Cs24Ge12O36,mp-573150,Cs2GeO3,"['Cs', 'Ge', 'O']",72.0,-378.63629538,0.0,-2.6645352591003757e-15,
7145,Cs4Ge2O26P8,mp-560216,Cs2GeP4O13,"['Cs', 'Ge', 'P', 'O']",40.0,-270.60168813,-1.2434497875801753e-14,0.0,
30581,Cs4Ge2Se6,mp-1102254,Cs2GeSe3,"['Cs', 'Ge', 'Se']",12.0,-44.60832819,0.0,0.0,
11930,Cs4Ge2Se8,mp-1104024,Cs2GeSe4,"['Cs', 'Ge', 'Se']",14.0,-51.75468847,0.0,0.0,
873,Cs8Ge4Te16,mp-662549,Cs2GeTe4,"['Cs', 'Ge', 'Te']",28.0,-92.25869988,-1.7763568394002505e-15,-1.7763568394002505e-15,
15941,Cs4H8Pd2,mp-1183735,Cs2H4Pd,"['Cs', 'H', 'Pd']",14.0,-44.87368044,0.0,0.0,
2271,Cs4H8Pt2,mp-643010,Cs2H4Pt,"['Cs', 'H', 'Pt']",14.0,-48.28232316,7.048403738840747e-05,0.0,
20638,C2Cs4H12O12,mp-758948,Cs2H6CO6,"['Cs', 'H', 'C', 'O']",30.0,-162.07177088,0.0017815346315099845,0.0,
17405,Cs2H6Pt1,mp-643243,Cs2H6Pt,"['Cs', 'H', 'Pt']",9.0,-31.61682105,1.1682581923189161e-05,0.0,
2795,Cs2Hf1O12W3,mp-1539190,Cs2Hf(WO4)3,"['Cs', 'Hf', 'W', 'O']",18.0,-135.22686993,4.038719618293385e-06,0.0,
6200,Br6Cs2Hf1,mp-1238793,Cs2HfBr6,"['Cs', 'Hf', 'Br']",9.0,-36.80759961,0.000536699013670372,-1.7763568394002505e-15,
19036,Cl6Cs2Hf1,mp-1120741,Cs2HfCl6,"['Cs', 'Hf', 'Cl']",9.0,-41.0605414,0.00020342476670887066,-1.7763568394002505e-15,
12036,Cs2F6Hf1,mp-13948,Cs2HfF6,"['Cs', 'Hf', 'F']",9.0,-54.34560061,-2.6645352591003757e-15,-2.6645352591003757e-15,
12103,Cs2Hf1I6,mp-29398,Cs2HfI6,"['Cs', 'Hf', 'I']",9.0,-32.22315639,-1.7763568394002505e-15,-1.7763568394002505e-15,
23951,Cs4Hf2O6,mp-1178405,Cs2HfO3,"['Cs', 'Hf', 'O']",12.0,-82.99160564,0.0,1.7763568394002505e-15,
8077,B18Cs4Hg2Se18,mp-1202194,Cs2Hg(BSe)9,"['Cs', 'Hg', 'B', 'Se']",42.0,-206.14571714,0.0006635486104906718,0.0,
3339,Cs6Hg81,mp-568335,Cs2Hg27,"['Cs', 'Hg']",87.0,-38.04247484,0.009942352667997423,0.0,
5141,Cs2Ge2Hg3S8,mp-1213712,Cs2Hg3(GeS4)2,"['Cs', 'Hg', 'Ge', 'S']",15.0,-53.01271552,0.0,0.0,
1582,Cs2Hg3I8,mp-540574,Cs2Hg3I8,"['Cs', 'Hg', 'I']",13.0,-24.21321463,0.0007478144816706056,0.0,
17645,Cs4Hg6S8,mp-1105419,Cs2Hg3S4,"['Cs', 'Hg', 'S']",18.0,-48.58075494,8.585633354485367e-05,-5.329070518200751e-15,
15836,Cs4Hg6Se8,mp-1106156,Cs2Hg3Se4,"['Cs', 'Hg', 'Se']",18.0,-44.17931801,0.00018588502387162364,0.0,
19052,Cs4Hg12S14,mp-17905,Cs2Hg6S7,"['Cs', 'Hg', 'S']",30.0,-77.0389821,0.0005408005240883362,0.0,
17538,Br16Cs8Hg4,mp-1183950,Cs2HgBr4,"['Cs', 'Hg', 'Br']",28.0,-70.0239562,0.0011391898437498327,0.0,
18111,Cl32Cs16Hg8,mp-1203522,Cs2HgCl4,"['Cs', 'Hg', 'Cl']",56.0,-155.37917006,0.00018593459751636843,0.0,
27478,Cs2F4Hg1,mp-8963,Cs2HgF4,"['Cs', 'Hg', 'F']",7.0,-25.01036051,9.942325404566077e-05,0.0,
27523,Cs4Hg2I8,mp-28421,Cs2HgI4,"['Cs', 'Hg', 'I']",14.0,-31.06604855,4.9907386997283254e-05,0.0,
21197,Cs2Hg1O2,mp-7232,Cs2HgO2,"['Cs', 'Hg', 'O']",5.0,-17.07278908,0.0,0.0,
27403,Cs2Hg1Te1,mp-1185537,Cs2HgTe,"['Cs', 'Hg', 'Te']",4.0,-8.25881618,0.011820977284927814,0.0,
9335,Cl20Cs8Ho4,mp-1213722,Cs2HoCl5,"['Cs', 'Ho', 'Cl']",32.0,-132.68168726,1.4716972664530203e-05,7.993605777301127e-15,
12108,Cs8I16O44,mp-572805,Cs2I4O11,"['Cs', 'I', 'O']",68.0,-297.55672414,9.6112141545035e-05,0.0,
21908,Cs16In16Sb24,mp-21835,Cs2In2Sb3,"['Cs', 'In', 'Sb']",56.0,-177.28422561,0.00011910095842670998,0.0,
7787,Cs4In6,mp-567752,Cs2In3,"['Cs', 'In']",10.0,-21.56264732,0.00031638372265652137,0.0,
8284,Ag1Br6Cs2In1,mp-1113554,Cs2InAgBr6,"['Cs', 'In', 'Ag', 'Br']",10.0,-28.76448984,0.013816528084960922,0.0,
5346,Ag1Cl6Cs2In1,mp-1096926,Cs2InAgCl6,"['Cs', 'In', 'Ag', 'Cl']",10.0,-32.21627716,4.0985751961208905e-06,2.531308496145357e-14,
24711,Ag1Cs2F6In1,mp-1113588,Cs2InAgF6,"['Cs', 'In', 'Ag', 'F']",10.0,-42.45719119,0.0,0.0,
7336,Cl6Cs2Ir1,mp-28651,Cs2IrCl6,"['Cs', 'Ir', 'Cl']",9.0,-32.69947957,-1.7763568394002505e-15,-1.7763568394002505e-15,
6270,Cs2F6Ir1,mp-572797,Cs2IrF6,"['Cs', 'Ir', 'F']",9.0,-41.7284449,0.005914210058592495,-1.7763568394002505e-15,
18931,B20Cs4K4O34,mp-1200330,Cs2K2B10O17,"['Cs', 'K', 'B', 'O']",62.0,-459.96515381,0.000887911866179536,-1.4210854715202004e-14,
28281,Cd6Cs4K4O10,mp-650532,Cs2K2Cd3O5,"['Cs', 'K', 'Cd', 'O']",24.0,-89.75807873,0.0003717628165684772,0.0,
19940,Cs8K8O20Te4,mp-556400,Cs2K2TeO5,"['Cs', 'K', 'Te', 'O']",40.0,-185.37307346,1.702031152284178e-05,0.0,
26302,Cs2Fe2K4O5,mp-505040,Cs2K4Fe2O5,"['Cs', 'K', 'Fe', 'O']",13.0,-59.21047639,0.0,0.0,
29150,Ag1Cs2F6K1,mp-13687,Cs2KAgF6,"['Cs', 'K', 'Ag', 'F']",10.0,-38.46033789,3.876357430598887e-07,7.105427357601002e-15,
2179,Al1Cs2F6K1,mp-1113092,Cs2KAlF6,"['Cs', 'K', 'Al', 'F']",10.0,-49.64288586,0.00027319378515588966,0.0,
11094,As1Cs2F6K1,mp-1113137,Cs2KAsF6,"['Cs', 'K', 'As', 'F']",10.0,-44.33240281,1.6394628499227792e-07,0.0,
7332,Bi1Cs2F6K1,mp-573204,Cs2KBiF6,"['Cs', 'K', 'Bi', 'F']",10.0,-44.87302583,1.3306445278971069e-07,-4.440892098500626e-15,
9808,Br6Ce1Cs2K1,mp-1112787,Cs2KCeBr6,"['Cs', 'K', 'Ce', 'Br']",10.0,-37.10425145,0.01747578883789469,0.0,
23332,Ce1Cl6Cs2K1,mp-1112872,Cs2KCeCl6,"['Cs', 'K', 'Ce', 'Cl']",10.0,-41.06157086,0.009053114180296085,7.993605777301127e-15,
3383,Co1Cs2F6K1,mp-540729,Cs2KCoF6,"['Cs', 'K', 'Co', 'F']",10.0,-44.33601201,0.0,8.881784197001252e-15,
10034,Cr1Cs2F6K1,mp-560956,Cs2KCrF6,"['Cs', 'K', 'Cr', 'F']",10.0,-50.45235798,3.434970508742197e-05,9.769962616701378e-15,
20569,Cs2Cu1F6K1,mp-6968,Cs2KCuF6,"['Cs', 'K', 'Cu', 'F']",10.0,-41.4662984,0.0,7.993605777301127e-15,
20184,Cl6Cs2Dy1K1,mp-1112785,Cs2KDyCl6,"['Cs', 'K', 'Dy', 'Cl']",10.0,-40.12457208,0.007886764778319844,0.0,
17797,Cl6Cs2Er1K1,mp-1113058,Cs2KErCl6,"['Cs', 'K', 'Er', 'Cl']",10.0,-40.10976038,0.0,0.0,
4522,Cs2F6Fe1K1,mp-559454,Cs2KFeF6,"['Cs', 'K', 'Fe', 'F']",10.0,-47.32574838,0.0,0.0,
18550,Cs2F6Ga1K1,mp-989531,Cs2KGaF6,"['Cs', 'K', 'Ga', 'F']",10.0,-45.4173942,8.181318359667955e-06,0.0,
3746,Cl6Cs2Gd1K1,mp-1113049,Cs2KGdCl6,"['Cs', 'K', 'Gd', 'Cl']",10.0,-49.5156538,0.0027232949267572693,0.0,
21355,Cl6Cs2Ho1K1,mp-1207104,Cs2KHoCl6,"['Cs', 'K', 'Ho', 'Cl']",10.0,-40.11234467,9.545451171710795e-06,0.0,
7261,Br6Cs2In1K1,mp-1113046,Cs2KInBr6,"['Cs', 'K', 'In', 'Br']",10.0,-29.77767038,0.011651992761718244,3.1086244689504383e-15,
11285,Cl6Cs2In1K1,mp-1112759,Cs2KInCl6,"['Cs', 'K', 'In', 'Cl']",10.0,-33.49858321,0.0,0.0,
12904,Cs2F6In1K1,mp-989639,Cs2KInF6,"['Cs', 'K', 'In', 'F']",10.0,-44.50700217,0.0,0.0,
23107,Cs2F6K1La1,mp-1206736,Cs2KLaF6,"['Cs', 'K', 'La', 'F']",10.0,-52.12356872,0.011752713571289597,0.0,
8990,Cl6Cs2K1Lu1,mp-1112760,Cs2KLuCl6,"['Cs', 'K', 'Lu', 'Cl']",10.0,-40.06608922,2.1406220698239053e-06,0.0,
11247,Cs4F24K2Mn6,mp-572298,Cs2KMn3F12,"['Cs', 'K', 'Mn', 'F']",36.0,-192.21574405,1.7183913844753818e-05,0.0,
30165,Cs2F6K1Mn1,mp-560861,Cs2KMnF6,"['Cs', 'K', 'Mn', 'F']",10.0,-48.9870701,6.155283203135298e-06,9.769962616701378e-15,
24798,Cs2F6K1Mo1,mp-557133,Cs2KMoF6,"['Cs', 'K', 'Mo', 'F']",10.0,-49.15263706,1.1388604491457954e-05,0.0,
11163,Br6Cs2K1Nd1,mp-1112758,Cs2KNdBr6,"['Cs', 'K', 'Nd', 'Br']",10.0,-36.0662669,0.017905866152343464,0.0,
5539,Br6Cs2K1Pr1,mp-1112754,Cs2KPrBr6,"['Cs', 'K', 'Pr', 'Br']",10.0,-36.04963599,0.019150103392578277,0.0,
2965,Cs2F6K1Rh1,mp-561561,Cs2KRhF6,"['Cs', 'K', 'Rh', 'F']",10.0,-45.41995582,1.4089020507590533e-05,0.0,
28986,Cs2F6K1Ru1,mp-1112583,Cs2KRuF6,"['Cs', 'K', 'Ru', 'F']",10.0,-47.19657321,0.008826506610110307,0.0,
30188,Cl6Cs2K1Sc1,mp-571124,Cs2KScCl6,"['Cs', 'K', 'Sc', 'Cl']",10.0,-41.20878435,3.410092773492579e-06,0.0,
8783,Cs2F6K1Sc1,mp-1113131,Cs2KScF6,"['Cs', 'K', 'Sc', 'F']",10.0,-53.74417617,0.00014553607617173725,0.0,
23543,Cl6Cs2K1Sm1,mp-1079871,Cs2KSmCl6,"['Cs', 'K', 'Sm', 'Cl']",10.0,-40.08449846,0.0,0.0,
29479,Cl6Cs2K1Tb1,mp-580631,Cs2KTbCl6,"['Cs', 'K', 'Tb', 'Cl']",10.0,-40.13335596,3.9643164040370493e-07,0.0,
25525,Cs2F6K1Ti1,mp-6178,Cs2KTiF6,"['Cs', 'K', 'Ti', 'F']",10.0,-52.64196975,0.008276868383789271,0.0,
30852,Cs2F6K1Tl1,mp-989526,Cs2KTlF6,"['Cs', 'K', 'Tl', 'F']",10.0,-41.27897678,0.0020853969511724912,0.0,
3989,Cl6Cs2K1Tm1,mp-1112689,Cs2KTmCl6,"['Cs', 'K', 'Tm', 'Cl']",10.0,-40.03163038,0.0,0.0,
4738,Cs2K1O14Si4U2,mp-862811,Cs2KU2(Si2O7)2,"['Cs', 'K', 'U', 'Si', 'O']",23.0,-181.35140707,0.0,1.4210854715202004e-14,
4783,Cs2F6K1V1,mp-558895,Cs2KVF6,"['Cs', 'K', 'V', 'F']",10.0,-50.68906689,0.006867706751953584,0.0,
22680,Br6Cs2K1Y1,mp-1112842,Cs2KYBr6,"['Cs', 'K', 'Y', 'Br']",10.0,-37.88382649,0.0020299196645510165,0.0,
240,Cl6Cs2K1Y1,mp-1112690,Cs2KYCl6,"['Cs', 'K', 'Y', 'Cl']",10.0,-41.96091198,7.397265644470963e-08,0.0,
6987,Cs2F6K1Y1,mp-6059,Cs2KYF6,"['Cs', 'K', 'Y', 'F']",10.0,-53.96662412,0.003247497057617288,-8.881784197001252e-16,
13676,Cs2F5K1O1Zr1,mp-40143,Cs2KZrOF5,"['Cs', 'K', 'Zr', 'O', 'F']",10.0,-56.80015203,0.00044608240039067937,0.0,
24163,Cs2I17La10Os2,mp-1213737,Cs2La10Os2I17,"['Cs', 'La', 'Os', 'I']",31.0,-141.0064839,0.00035814993069660517,1.7763568394002505e-15,
25019,Br20Cs8La4,mp-1213736,Cs2LaBr5,"['Cs', 'La', 'Br']",32.0,-122.24899376,0.00040553328736070426,7.105427357601002e-15,
4982,Cl20Cs8La4,mp-1213724,Cs2LaCl5,"['Cs', 'La', 'Cl']",32.0,-135.44482028,0.00015171915528178204,0.0,
26074,B4Cs4Li4O30P8,mp-1019606,Cs2Li2B2P4O15,"['Cs', 'Li', 'B', 'P', 'O']",50.0,-346.95722788,0.0038782207203125196,0.0,
4318,Cs4Ge2Li4O8,mp-8313,Cs2Li2GeO4,"['Cs', 'Li', 'Ge', 'O']",18.0,-92.44352899,0.0,0.0,
21906,Cs4Li4O8Si2,mp-504849,Cs2Li2SiO4,"['Cs', 'Li', 'Si', 'O']",18.0,-100.64603858,0.01046868186197969,0.0,
6454,Cs4Li4O8Ti2,mp-8294,Cs2Li2TiO4,"['Cs', 'Li', 'Ti', 'O']",18.0,-106.63089489,0.0089728601150183,0.0,
2298,Cs4Ga2Li6O8,mp-555140,Cs2Li3GaO4,"['Cs', 'Li', 'Ga', 'O']",20.0,-95.29220612,0.011573885894531344,0.0,
12728,Al3Cs2F12Li1,mp-13634,Cs2LiAl3F12,"['Cs', 'Li', 'Al', 'F']",18.0,-98.30074788,0.0010173398643562592,0.0,
4817,Al1Cs2F6Li1,mp-1206808,Cs2LiAlF6,"['Cs', 'Li', 'Al', 'F']",10.0,-50.55939499,0.0035819212880863205,0.0,
19467,As2Cs4Li2O8,mp-14364,Cs2LiAsO4,"['Cs', 'Li', 'As', 'O']",16.0,-84.42964382,0.0050025049328619176,0.0,
24693,Br6Ce1Cs2Li1,mp-1111848,Cs2LiCeBr6,"['Cs', 'Li', 'Ce', 'Br']",10.0,-37.60562559,0.003557971700685947,0.0,
4272,Cr3Cs2F12Li1,mp-1226357,Cs2LiCr3F12,"['Cs', 'Li', 'Cr', 'F']",18.0,-100.12050797,0.0012685255924473893,-5.329070518200751e-15,
18776,Cr1Cs2F6Li1,mp-1206440,Cs2LiCrF6,"['Cs', 'Li', 'Cr', 'F']",10.0,-51.23731875,0.003279987182617461,0.0,
4502,Cl6Cs2Dy1Li1,mp-1113018,Cs2LiDyCl6,"['Cs', 'Li', 'Dy', 'Cl']",10.0,-40.62368312,0.0006918778193361064,0.0,
17786,Cl6Cs2Er1Li1,mp-1111446,Cs2LiErCl6,"['Cs', 'Li', 'Er', 'Cl']",10.0,-40.59320129,0.0006657962929690342,0.0,
2629,Cs2F6Ga1Li1,mp-6654,Cs2LiGaF6,"['Cs', 'Li', 'Ga', 'F']",10.0,-46.24942522,0.0030488995087889492,0.0,
27585,Cl6Cs2Gd1Li1,mp-1112624,Cs2LiGdCl6,"['Cs', 'Li', 'Gd', 'Cl']",10.0,-50.03670983,0.0033425301835938726,0.0,
6244,Cl12Cs4In2Li2,mp-571527,Cs2LiInCl6,"['Cs', 'Li', 'In', 'Cl']",20.0,-68.02655112,0.0011277754208989244,0.0,
8273,C6Cs2Ir1Li1N6,mp-574653,Cs2LiIr(CN)6,"['Cs', 'Li', 'Ir', 'C', 'N']",16.0,-121.71855246,0.0010323238195804052,0.0,
29027,Cl6Cs2Li1Lu1,mp-570379,Cs2LiLuCl6,"['Cs', 'Li', 'Lu', 'Cl']",10.0,-40.52466306,0.0006016658017582444,0.0,
8605,Cs8Li4Mn4O16,mp-18722,Cs2LiMnO4,"['Cs', 'Li', 'Mn', 'O']",32.0,-173.26961734,0.005466677668456654,0.0,
10121,Cs2F6Li1Mo1,mp-1110974,Cs2LiMoF6,"['Cs', 'Li', 'Mo', 'F']",10.0,-49.63769713,0.030889231702162512,0.0,
2991,Cs4Li2Nb2S8,mp-573030,Cs2LiNbS4,"['Cs', 'Li', 'Nb', 'S']",16.0,-80.59945794,0.0019212345544428189,0.0,
22231,B8Cs8Li4Nd4O24,mp-1194993,Cs2LiNd(BO3)2,"['Cs', 'Li', 'Nd', 'B', 'O']",48.0,-325.51572136,0.0010268265250656938,0.0,
3675,Br6Cs2Li1Nd1,mp-1111845,Cs2LiNdBr6,"['Cs', 'Li', 'Nd', 'Br']",10.0,-36.55074006,0.007050675091307745,0.0,
13854,Cl6Cs2Li1Nd1,mp-1111841,Cs2LiNdCl6,"['Cs', 'Li', 'Nd', 'Cl']",10.0,-40.58857048,0.009675038944579661,3.552713678800501e-15,
4356,Cl12Cs4Li2Sc2,mp-1189625,Cs2LiScCl6,"['Cs', 'Li', 'Sc', 'Cl']",20.0,-83.47324818,0.0008567499355471853,0.0,
6356,Cl6Cs2Li1Sm1,mp-1112671,Cs2LiSmCl6,"['Cs', 'Li', 'Sm', 'Cl']",10.0,-40.61713056,7.993605777301127e-15,0.0,
23412,Cl6Cs2Li1Tb1,mp-1112669,Cs2LiTbCl6,"['Cs', 'Li', 'Tb', 'Cl']",10.0,-40.64050955,0.0007193636035163209,7.993605777301127e-15,
23342,Cl6Cs2Li1Tm1,mp-1112998,Cs2LiTmCl6,"['Cs', 'Li', 'Tm', 'Cl']",10.0,-40.5061116,0.0006391085546884057,0.0,
6642,Cs2F12Li1V3,mp-1226312,Cs2LiV3F12,"['Cs', 'Li', 'V', 'F']",18.0,-101.41454264,0.0012002305305989225,0.0,
10800,Cs4Li2O8V2,mp-541190,Cs2LiVO4,"['Cs', 'Li', 'V', 'O']",16.0,-94.15346403,0.005391431169433858,0.0,
15575,Cs4Li2S8V2,mp-510338,Cs2LiVS4,"['Cs', 'Li', 'V', 'S']",16.0,-77.97898321,0.002658359860840065,0.0,
10370,Br6Cs2Li1Y1,mp-1111833,Cs2LiYBr6,"['Cs', 'Li', 'Y', 'Br']",10.0,-38.32302437,0.0007492918208011901,0.0,
28864,Cl6Cs2Li1Y1,mp-567652,Cs2LiYCl6,"['Cs', 'Li', 'Y', 'Cl']",10.0,-42.45943772,0.0007261895478514191,0.0,
11677,C1Cl18Cs2Lu7,mp-569387,Cs2Lu7CCl18,"['Cs', 'Lu', 'C', 'Cl']",28.0,-134.73665775,0.008042056740663384,0.0,
18465,Ag1Cl6Cs2Lu1,mp-1113542,Cs2LuAgCl6,"['Cs', 'Lu', 'Ag', 'Cl']",10.0,-38.72764316,2.0300088897862167e-05,0.0,
3699,C6Cs2Fe1Mg1N6,mp-7331,Cs2MgFe(CN)6,"['Cs', 'Mg', 'Fe', 'C', 'N']",16.0,-122.4793214,0.0,0.0,
30390,Cs4H24Mg2O28S4,mp-542417,Cs2MgH12(SO7)2,"['Cs', 'Mg', 'H', 'S', 'O']",62.0,-331.53923781,0.0,0.0,
23441,Cs4H24Mg2O28Se4,mp-779875,Cs2MgH12(SeO7)2,"['Cs', 'Mg', 'H', 'Se', 'O']",62.0,-316.39993273,0.0,0.0,
10365,C8Cs8H32Mg4O40,mp-733936,Cs2MgH8(CO5)2,"['Cs', 'Mg', 'H', 'C', 'O']",92.0,-528.03684611,0.0,0.0,
1145,Cs2H8Mg1O16P4,mp-866620,Cs2MgP4(HO2)8,"['Cs', 'Mg', 'P', 'H', 'O']",31.0,-189.155403,0.0,0.0,
11355,Cs16Mg8O96Si40,mp-1019610,Cs2MgSi5O12,"['Cs', 'Mg', 'Si', 'O']",160.0,-1155.63727531,0.0,0.0,
27581,Cs8Mg4Se32Sn12,mp-1195633,Cs2MgSn3Se8,"['Cs', 'Mg', 'Sn', 'Se']",56.0,-215.41351778,0.0,0.0,
14633,Cs8Mn4O48P16,mp-572790,Cs2Mn(PO3)4,"['Cs', 'Mn', 'P', 'O']",76.0,-529.75190043,3.536132401293912e-05,0.0,
1263,Cs4Mn2P4Se12,mp-863753,Cs2Mn(PSe3)2,"['Cs', 'Mn', 'P', 'Se']",22.0,-98.77142177,0.005758891443744751,0.0,
13545,Cs8Mn8Mo12O48,mp-1213801,Cs2Mn2(MoO4)3,"['Cs', 'Mn', 'Mo', 'O']",76.0,-526.07898546,0.005749516716678116,-1.4210854715202004e-14,
14475,Cs4Mn6S8,mp-2884,Cs2Mn3S4,"['Cs', 'Mn', 'S']",18.0,-105.98948277,0.007093021126030052,0.0,
1959,Cs4Mn6Se8,mp-3704,Cs2Mn3Se4,"['Cs', 'Mn', 'Se']",18.0,-99.66146361,6.6840744361584825e-06,0.0,
9123,Cs4Mn6Te8,mp-5927,Cs2Mn3Te4,"['Cs', 'Mn', 'Te']",18.0,-92.69210873,0.006001870585785163,0.0,
4935,Bi8Cs8Mn4S20,mp-556529,Cs2MnBi2S5,"['Cs', 'Mn', 'Bi', 'S']",40.0,-187.42966499,0.0,-8.881784197001252e-16,
4743,Br16Cs8Mn4,mp-600186,Cs2MnBr4,"['Cs', 'Mn', 'Br']",28.0,-109.93745234,0.00037958387416381356,0.0,
26452,Cl6Cs2Mn1,mp-1205772,Cs2MnCl6,"['Cs', 'Mn', 'Cl']",9.0,-35.144618,0.0004614779188374385,-3.552713678800501e-15,
15398,Cs2F4Mn1,mp-1206528,Cs2MnF4,"['Cs', 'Mn', 'F']",7.0,-35.87888193,0.0,0.0,
22860,Cs2F5Mn1,mp-555223,Cs2MnF5,"['Cs', 'Mn', 'F']",8.0,-40.38169538,8.393016113306118e-05,0.0,
26668,Cs2F6Mn1,mp-557912,Cs2MnF6,"['Cs', 'Mn', 'F']",9.0,-44.20452678,0.0,0.0,
7442,Cs4H24Mn2O28S4,mp-1197828,Cs2MnH12(SO7)2,"['Cs', 'Mn', 'H', 'S', 'O']",62.0,-338.58416073,0.001882700864404896,0.0,
8553,Cs4H24Mn2O28Se4,mp-1214073,Cs2MnH12(SeO7)2,"['Cs', 'Mn', 'H', 'Se', 'O']",62.0,-323.46568404,0.002089060815291255,9.769962616701378e-15,
1559,Cs4F12Mn2Ni2,mp-1226311,Cs2MnNiF6,"['Cs', 'Mn', 'Ni', 'F']",20.0,-98.4839819,0.0003636399853510497,-9.769962616701378e-15,
12367,Cs8Mn4O16,mp-505300,Cs2MnO4,"['Cs', 'Mn', 'O']",28.0,-153.81602103,2.3660811994119513e-06,0.0,
17307,Cs4Mn2S4,mp-505034,Cs2MnS2,"['Cs', 'Mn', 'S']",10.0,-47.95354047,0.0002866207246094987,0.0,
11817,Cs8F12Mn4O16S4,mp-1199926,Cs2MnSO4F3,"['Cs', 'Mn', 'S', 'O', 'F']",44.0,-249.94426307,0.00029521853513436724,0.0,
23196,Cs4Mn2Se4,mp-573947,Cs2MnSe2,"['Cs', 'Mn', 'Se']",10.0,-45.22728741,0.0002807987949218216,1.7763568394002505e-15,
20573,Cs16Mn8O96Si40,mp-15126,Cs2MnSi5O12,"['Cs', 'Mn', 'Si', 'O']",160.0,-1184.25878547,0.0,0.0,
25839,Cs4Mn2Sn2Te8,mp-22235,Cs2MnSnTe4,"['Cs', 'Mn', 'Sn', 'Te']",16.0,-64.75286125,0.0,0.0,
23212,Cs4Mn2Te4,mp-610744,Cs2MnTe2,"['Cs', 'Mn', 'Te']",10.0,-42.23198524,0.00025229997460840536,0.0,
11431,Cs4Mo6O20,mp-1193056,Cs2Mo3O10,"['Cs', 'Mo', 'O']",30.0,-198.24510931,0.0009517640481773171,0.0,
7274,Cs8Mo12O68P12,mp-1214995,Cs2Mo3P3O17,"['Cs', 'Mo', 'P', 'O']",100.0,-692.98100951,5.5067062021407764e-14,0.0,
199,Cs4Mo6O24Se2,mp-18353,Cs2Mo3SeO12,"['Cs', 'Mo', 'Se', 'O']",36.0,-229.59730526,5.002543401744219e-06,0.0,
23603,Br6Cs2Mo1,mp-1207229,Cs2MoBr6,"['Cs', 'Mo', 'Br']",9.0,-32.92672168,6.361894314554917e-05,0.0,
5673,Cl6Cs2Mo1,mp-570990,Cs2MoCl6,"['Cs', 'Mo', 'Cl']",9.0,-36.71453871,1.969587781847082e-05,-3.552713678800501e-15,
16479,Cs8Mo4O16,mp-1194312,Cs2MoO4,"['Cs', 'Mo', 'O']",28.0,-167.72356091,0.0004844187067511996,0.0,
13165,Cs8Mo4S16,mp-560635,Cs2MoS4,"['Cs', 'Mo', 'S']",28.0,-144.46389406,0.0,-2.6645352591003757e-15,
5161,Cs8Mo4Se16,mp-866654,Cs2MoSe4,"['Cs', 'Mo', 'Se']",28.0,-130.81847508,0.0011784935853791367,0.0,
11873,B20Cs4Na4O34,mp-559557,Cs2Na2B10O17,"['Cs', 'Na', 'B', 'O']",62.0,-460.13638275,0.0004755160660279145,0.0,
28141,Cs4Ir2Na4O8,mp-616507,Cs2Na2IrO4,"['Cs', 'Na', 'Ir', 'O']",18.0,-87.89401687,0.000834023715277965,-2.6645352591003757e-15,
20362,B36Cs4Na4O60Sr2,mp-1019611,Cs2Na2Sr(B3O5)6,"['Cs', 'Na', 'Sr', 'B', 'O']",106.0,-812.97046537,0.00012058207842002844,0.0,
21989,Cs8In4Na12O16,mp-504852,Cs2Na3InO4,"['Cs', 'Na', 'In', 'O']",40.0,-167.13378223,0.0009844725703134216,0.0,
4892,Cs8Na12O16Tl4,mp-562541,Cs2Na3TlO4,"['Cs', 'Na', 'Tl', 'O']",40.0,-157.92137788,0.0009662121796880641,0.0,
30930,Al8Cs16Na8O64P16,mp-581862,Cs2NaAl(PO4)2,"['Cs', 'Na', 'Al', 'P', 'O']",112.0,-731.47886271,0.001378523341239557,0.0,
19836,Al3Cs2F12Na1,mp-12309,Cs2NaAl3F12,"['Cs', 'Na', 'Al', 'F']",18.0,-97.57101083,0.0001124490060764316,-2.6645352591003757e-15,
22685,Al2Cs4F12Na2,mp-6528,Cs2NaAlF6,"['Cs', 'Na', 'Al', 'F']",20.0,-99.38346845,0.0002395077978523119,0.0,