,Composition,MaterialId,Reduced Formula,Elements,NSites,Corrected Energy,Decomposition Energy Per Atom All,Decomposition Energy Per Atom MP,Directory
14835,Ba6Be2Cl36Zr12,mp-569563,Ba3Zr6BeCl18,"['Ba', 'Zr', 'Be', 'Cl']",56.0,-294.07618757,4.011628628308728e-05,0.0,
14196,Ba6Ir4O18Zr2,mp-1214509,Ba3ZrIr2O9,"['Ba', 'Zr', 'Ir', 'O']",30.0,-217.99786732,0.005828988638883814,0.0,
4211,Ba12O27Pt9,mp-757840,Ba4(PtO3)3,"['Ba', 'Pt', 'O']",48.0,-292.32318507,0.0005583697167850232,-5.329070518200751e-15,
27832,Ba8Bi6Sn18,mp-1214568,Ba4(Sn3Bi)3,"['Ba', 'Sn', 'Bi']",32.0,-125.85042043,2.7879235839911587e-06,0.0,
19366,Ag6Ba8Ge40,mp-570662,Ba4Ag3Ge20,"['Ba', 'Ag', 'Ge']",54.0,-231.33963515,0.0,0.0,
21799,Ag2Au2Ba8O12,mp-556896,Ba4AgAuO6,"['Ba', 'Ag', 'Au', 'O']",24.0,-131.43924758,4.049084798207758e-05,0.0,
27400,Al10Ba8,mp-2631,Ba4Al5,"['Ba', 'Al']",18.0,-56.80005949,0.0022721195334201028,0.0,
2061,As2Ba4O1,mp-8300,Ba4As2O,"['Ba', 'As', 'O']",7.0,-32.31931317,0.008579821103515961,0.0,
1395,As6Ba8,mp-1214488,Ba4As3,"['Ba', 'As']",14.0,-58.02434521,0.036397856558778585,0.0,
31176,Ba12Bi3Ir9O36,mp-1199190,Ba4Bi(IrO4)3,"['Ba', 'Bi', 'Ir', 'O']",60.0,-393.07526404,0.0,0.0,
4345,Ba4Bi1O12Pb3,mp-1228450,Ba4Bi(PbO4)3,"['Ba', 'Bi', 'Pb', 'O']",20.0,-116.85580039,0.0002025464179684633,0.0,
6373,Ba4Bi2O1,mp-1228030,Ba4Bi2O,"['Ba', 'Bi', 'O']",7.0,-30.34675462,0.0006642635316689294,0.0,
19218,Ba8Bi6,mp-30892,Ba4Bi3,"['Ba', 'Bi']",14.0,-51.45670959,0.009662243408668392,0.0,
7698,Ba8Bi6F34,mp-38357,Ba4Bi3F17,"['Ba', 'Bi', 'F']",48.0,-256.23123694,5.34591357421732e-05,0.0,
3918,Ba8Br12O2,mp-555218,Ba4Br6O,"['Ba', 'Br', 'O']",22.0,-96.60317852,0.00019936337091586154,0.0,
3794,Ba4Ca1Cu2F28V4,mp-1355181,Ba4CaV4Cu2F28,"['Ba', 'Ca', 'V', 'Cu', 'F']",39.0,-218.84154041,0.02597676459319942,0.0,
18503,Ba12Ce3O36Ru9,mp-1214942,Ba4Ce(RuO4)3,"['Ba', 'Ce', 'Ru', 'O']",60.0,-430.74643742,0.0,2.1582735598713043e-13,
13665,Ba4Ce1Mn3O12,mp-561553,Ba4CeMn3O12,"['Ba', 'Ce', 'Mn', 'O']",20.0,-142.75136208,0.0,5.5067062021407764e-14,
17101,Ba8Cl12O2,mp-23063,Ba4Cl6O,"['Ba', 'Cl', 'O']",22.0,-104.54166402,0.0,0.0,
24416,Ba4Co1O12Re2,mp-1106249,Ba4Co(ReO6)2,"['Ba', 'Co', 'Re', 'O']",19.0,-139.13020559,0.0,0.0,
20965,Ba8Cu4Si42,mp-1228302,Ba4Cu2Si21,"['Ba', 'Cu', 'Si']",54.0,-270.3525082,0.0,0.0,
10671,Ba8Cu6Si40,mp-1214552,Ba4Cu3Si20,"['Ba', 'Cu', 'Si']",54.0,-268.51309655,0.0,0.0,
16781,Ba32Cu64P120,mp-1197658,Ba4Cu8P15,"['Ba', 'Cu', 'P']",216.0,-1076.74048049,0.0,0.0,
26164,Ba8Cu6Dy2O18,mp-1214524,Ba4Dy(CuO3)3,"['Ba', 'Dy', 'Cu', 'O']",34.0,-207.14728802,0.0,4.618527782440651e-14,
10133,Ba4Er1O12Ru3,mp-984788,Ba4Er(RuO4)3,"['Ba', 'Er', 'Ru', 'O']",20.0,-141.8237718,0.0,0.0,
26784,Ba12Fe12O33,mp-757712,Ba4Fe4O11,"['Ba', 'Fe', 'O']",57.0,-365.11178547,0.009943605753887752,0.0,
9480,Ba24Ga12O42,mp-30198,Ba4Ga2O7,"['Ba', 'Ga', 'O']",78.0,-476.89123076,2.24102534058801e-05,0.0,
9821,Ba8Ga6Ge40,mp-1214614,Ba4Ga3Ge20,"['Ba', 'Ga', 'Ge']",54.0,-231.05344188,0.0,0.0,
28046,Ba8Ga6Si40,mp-1214507,Ba4Ga3Si20,"['Ba', 'Ga', 'Si']",54.0,-260.62479815,0.0,0.0,
4560,Au6Ba8Ge40,mp-21839,Ba4Ge20Au3,"['Ba', 'Ge', 'Au']",54.0,-237.28816952,0.0,0.0,
1312,As32Ba32Ge8,mp-14002,Ba4GeAs4,"['Ba', 'Ge', 'As']",72.0,-317.67953674,0.0,0.0,
11194,Ba8Cu6Ho2O18,mp-1214501,Ba4Ho(CuO3)3,"['Ba', 'Ho', 'Cu', 'O']",34.0,-207.27507494,5.329070518200751e-15,0.0,
13060,Ba4Ho1O12Ru3,mp-560380,Ba4Ho(RuO4)3,"['Ba', 'Ho', 'Ru', 'O']",20.0,-141.75698771,0.0,0.0,
28194,Ba8I12O2,mp-29909,Ba4I6O,"['Ba', 'I', 'O']",22.0,-87.59748496,0.0,0.0,
1325,Ba8In4S10Te4,mp-1193666,Ba4In2Te2S5,"['Ba', 'In', 'Te', 'S']",26.0,-118.50890413,0.00012506980093096587,-8.881784197001252e-16,
1597,Ag4Ba16In4S24,mp-1195568,Ba4InAgS6,"['Ba', 'In', 'Ag', 'S']",48.0,-226.75545522,7.943938639343173e-05,0.0,
19939,Ba4In1O8Sb1,mp-1228129,Ba4InSbO8,"['Ba', 'In', 'Sb', 'O']",14.0,-86.17013911,1.2977912953182624e-05,-2.6645352591003757e-15,
1315,Ba8Ir6O20,mp-17102,Ba4Ir3O10,"['Ba', 'Ir', 'O']",34.0,-226.56725322,1.0256138557096506e-05,1.2434497875801753e-14,
29431,Ba8Ir2O12,mp-754684,Ba4IrO6,"['Ba', 'Ir', 'O']",22.0,-138.80421201,0.004764839294801426,0.0,
7046,Ba4Bi3Li1O12,mp-1214461,Ba4Li(BiO4)3,"['Ba', 'Li', 'Bi', 'O']",20.0,-116.30896833,0.0005448665810545705,0.0,
5041,Ba4Li1O12Sb3,mp-7971,Ba4Li(SbO4)3,"['Ba', 'Li', 'Sb', 'O']",20.0,-124.24913866,0.0005597418046878744,0.0,
27418,As12Ba8Cd6Li4,mp-1192557,Ba4Li2(CdAs2)3,"['Ba', 'Li', 'Cd', 'As']",30.0,-109.20469214,0.0016381815149735246,-3.1086244689504383e-15,
7546,Ba8Cd6Li4P12,mp-1192527,Ba4Li2(CdP2)3,"['Ba', 'Li', 'Cd', 'P']",30.0,-116.66035413,0.0038719338665362812,0.0,
14400,Ba4C2Cu1Li1O10,mp-15472,Ba4LiCu(CO5)2,"['Ba', 'Li', 'Cu', 'C', 'O']",18.0,-119.42713595,0.0007183485080295426,0.0,
9297,Ba16Li4Mo8N28,mp-6011,Ba4LiMo2N7,"['Ba', 'Li', 'Mo', 'N']",56.0,-403.59794309,0.0023447618903453815,0.0,
22793,Ba8Li2Nb6O24,mp-18274,Ba4LiNb3O12,"['Ba', 'Li', 'Nb', 'O']",40.0,-310.30574427,0.0017941190800776496,0.0,
9916,Ba8Li2O24Ta6,mp-16792,Ba4LiTa3O12,"['Ba', 'Li', 'Ta', 'O']",40.0,-327.31550843,0.0017689787031240911,0.0,
14876,Ba16Li4N28W8,mp-6665,Ba4LiW2N7,"['Ba', 'Li', 'W', 'N']",56.0,-424.40304495,0.0024196510742156008,0.0,
22937,Ba4Bi3Mg1O12,mp-1147558,Ba4Mg(BiO4)3,"['Ba', 'Mg', 'Bi', 'O']",20.0,-118.40483986,0.0055304572563477095,0.0,
30709,Ba8Mg2N12Si4,mp-1019517,Ba4Mg(SiN3)2,"['Ba', 'Mg', 'Si', 'N']",26.0,-164.15151214,0.0,0.0,
23110,Ba4Mg1O30Ta10,mp-1228584,Ba4MgTa10O30,"['Ba', 'Mg', 'Ta', 'O']",45.0,-409.65219003,0.023151894409728868,0.0,
4727,Ba8Mn6O20,mp-18791,Ba4Mn3O10,"['Ba', 'Mn', 'O']",34.0,-232.10301137,0.0,0.0,
1983,Ba8F8Ga4Mn2S12,mp-1197784,Ba4MnGa2(S3F2)2,"['Ba', 'Mn', 'Ga', 'S', 'F']",34.0,-182.53647099,0.00015051861902026786,0.0,
13886,B3Ba4N6Na1,mp-9705,Ba4Na(BN2)3,"['Ba', 'Na', 'B', 'N']",14.0,-92.65228161,0.00017612610630823866,2.6645352591003757e-15,
14381,B24Ba32Na8O72,mp-6575,Ba4Na(BO3)3,"['Ba', 'Na', 'B', 'O']",136.0,-954.16941827,0.0,0.0,
26744,Ba4Bi3Na1O12,mp-559352,Ba4Na(BiO4)3,"['Ba', 'Na', 'Bi', 'O']",20.0,-115.46844089,0.00019262224804705852,0.0,
29086,Ba8Na2O24Ru6,mp-542286,Ba4Na(RuO4)3,"['Ba', 'Na', 'Ru', 'O']",40.0,-266.3990417,0.00029786497070372064,0.0,
9054,Ba4Na1O12Sb3,mp-6273,Ba4Na(SbO4)3,"['Ba', 'Na', 'Sb', 'O']",20.0,-123.32705567,0.00022529267187554325,0.0,
9860,Ba4Na2O11W2,mp-1228581,Ba4Na2W2O11,"['Ba', 'Na', 'W', 'O']",19.0,-125.82945787,0.0006421227960533571,0.0,
20024,Ba4C2Cu1Na1O10,mp-6841,Ba4NaCu(CO5)2,"['Ba', 'Na', 'Cu', 'C', 'O']",18.0,-118.46373052,0.00021161960286431025,0.0,
6935,Ba12Mn6Na3O27,mp-554477,Ba4NaMn2O9,"['Ba', 'Na', 'Mn', 'O']",48.0,-305.89539011,0.00020032302571593164,0.0,
26560,Ba4Nb14O23,mp-4564,Ba4Nb14O23,"['Ba', 'Nb', 'O']",41.0,-362.35859242,-6.572520305780927e-14,1.3145040611561853e-13,
7799,Ba24F72Nb12O18,mp-558153,Ba4Nb2(OF4)3,"['Ba', 'Nb', 'O', 'F']",126.0,-827.21727331,3.452559647243447e-05,-6.217248937900877e-15,
5742,Ba8Nb4O18,mp-1193166,Ba4Nb2O9,"['Ba', 'Nb', 'O']",30.0,-229.15776371,0.0006050727851594218,3.552713678800501e-15,
3097,Ba4Nb2O12W1,mp-1228131,Ba4Nb2WO12,"['Ba', 'Nb', 'W', 'O']",19.0,-146.49483703,0.00046106956191493964,0.0,
2553,Ba16Fe4Nb4O32,mp-1022809,Ba4NbFeO8,"['Ba', 'Nb', 'Fe', 'O']",56.0,-394.96502961,0.0,0.0,
11556,Ba4Ir3Nd1O12,mp-1214660,Ba4Nd(IrO4)3,"['Ba', 'Nd', 'Ir', 'O']",20.0,-137.52276758,-1.0391687510491465e-13,0.0,
20756,Ba8Nd8O30Pt2Zn6,mp-9837,Ba4Nd4Zn3PtO15,"['Ba', 'Nd', 'Zn', 'Pt', 'O']",54.0,-352.77536944,0.006808514366557716,0.0,
6240,Ba8Ge40Ni6,mp-30169,Ba4Ni3Ge20,"['Ba', 'Ni', 'Ge']",54.0,-250.35936979,0.0,0.0,
20783,Ba8O2P4,mp-28164,Ba4P2O,"['Ba', 'P', 'O']",14.0,-66.64488541,0.0004022847509501659,0.0,
2184,Ba32P24,mp-28823,Ba4P3,"['Ba', 'P']",56.0,-247.59858107,0.00013171359374997138,0.0,
14964,Ba4F24H1P3,mp-1203328,Ba4P3HF24,"['Ba', 'P', 'H', 'F']",32.0,-170.02428257,0.004091566559069726,0.0,
5684,Ba8O12Pd2,mp-782050,Ba4PdO6,"['Ba', 'Pd', 'O']",22.0,-130.12351338,5.315824218854459e-05,0.0,
18453,Ba8O12Pt2,mp-8727,Ba4PtO6,"['Ba', 'Pt', 'O']",22.0,-132.91512857,0.0,0.0,
17116,Ba4Ni1O12Re2,mp-1228183,Ba4Re2NiO12,"['Ba', 'Re', 'Ni', 'O']",19.0,-136.4473567,4.920663034546635e-05,0.0,
2826,Ba8O20Ru6,mp-17304,Ba4Ru3O10,"['Ba', 'Ru', 'O']",34.0,-234.08788563,-1.0391687510491465e-13,0.0,
25772,Ba4O1Sb2,mp-9774,Ba4Sb2O,"['Ba', 'Sb', 'O']",7.0,-31.3694176,0.000577201116072068,0.0,
22709,Ba8O18Sb4,mp-801028,Ba4Sb2O9,"['Ba', 'Sb', 'O']",30.0,-188.04371136,9.214086458264603e-05,0.0,
17174,Ba16Sb16Se44,mp-28238,Ba4Sb4Se11,"['Ba', 'Sb', 'Se']",76.0,-329.10819311,1.7629591866352712e-05,0.0,
15104,Ba4Cu2O9Sc2,mp-1228084,Ba4Sc2Cu2O9,"['Ba', 'Sc', 'Cu', 'O']",17.0,-114.64544127,0.0,0.0,
31265,Ba4O12Re1Sc1W1,mp-1228167,Ba4ScReWO12,"['Ba', 'Sc', 'Re', 'W', 'O']",19.0,-143.00643678,0.00023338493421043438,0.0,
6168,Au6Ba8Si40,mp-17815,Ba4Si20Au3,"['Ba', 'Si', 'Au']",54.0,-267.38312291,0.0,0.0,
19701,Au4Ba8Si42,mp-1228313,Ba4Si21Au2,"['Ba', 'Si', 'Au']",54.0,-269.20772936,0.011592670345456746,0.0,
23517,Ba16Br8Si12,mp-30101,Ba4Si3Br2,"['Ba', 'Si', 'Br']",36.0,-145.88928585,0.002632519418675372,0.0,
263,As32Ba32Si8,mp-14001,Ba4SiAs4,"['Ba', 'Si', 'As']",72.0,-325.88445092,0.0009088780099899552,0.0,
28203,Ba32P32Si8,mp-14214,Ba4SiP4,"['Ba', 'Si', 'P']",72.0,-347.93539034,0.0,0.0,
15117,Ba8Sb4Se22Si2,mp-1196887,Ba4SiSb2Se11,"['Ba', 'Si', 'Sb', 'Se']",36.0,-159.68180362,0.003101982099609657,0.0,
5821,Ba8Cl32Sm6,mp-1196927,Ba4Sm3Cl16,"['Ba', 'Sm', 'Cl']",46.0,-211.58469689,0.017492286555076397,0.0,
24293,Ba8Co8La4O30Sr4,mp-1228696,Ba4Sr2La2Co4O15,"['Ba', 'Sr', 'La', 'Co', 'O']",54.0,-353.37254026,0.0,0.0,
30361,Ba8Co8Nd4O30Sr4,mp-1228541,Ba4Sr2Nd2Co4O15,"['Ba', 'Sr', 'Nd', 'Co', 'O']",54.0,-351.72293047,0.005333038532985945,0.0,
28903,Ba8Co8O30Sm4Sr4,mp-1228582,Ba4Sr2Sm2Co4O15,"['Ba', 'Sr', 'Sm', 'Co', 'O']",54.0,-352.33832911,0.0008201767100688429,0.0,
25538,Ba4Co1O30Ta10,mp-1228585,Ba4Ta10CoO30,"['Ba', 'Ta', 'Co', 'O']",45.0,-409.89485869,0.020268908965277888,6.750155989720952e-14,
19411,Ba4Fe1O30Ta10,mp-1228547,Ba4Ta10FeO30,"['Ba', 'Ta', 'Fe', 'O']",45.0,-411.25809792,0.01944298629861052,0.0,
10248,Ba16O36Ta8,mp-1196006,Ba4Ta2O9,"['Ba', 'Ta', 'O']",60.0,-480.60491704,0.0023670971848961386,0.0,
13948,Ba8O60Ti26,mp-29298,Ba4Ti13O30,"['Ba', 'Ti', 'O']",94.0,-807.80605848,1.8867566488722787e-05,0.0,
29503,Ba8O20Pt2Ti4,mp-558894,Ba4Ti2PtO10,"['Ba', 'Ti', 'Pt', 'O']",34.0,-246.55800772,0.0004890738373157788,0.0,
8832,As32Ba32Ti8,mp-15503,Ba4TiAs4,"['Ba', 'Ti', 'As']",72.0,-353.35429129,0.0,8.881784197001252e-16,
16302,Ba32P32Ti8,mp-15502,Ba4TiP4,"['Ba', 'Ti', 'P']",72.0,-374.8827693,6.078744574633532e-05,0.0,
12027,Ba4Hg3Tl13,mp-1228188,Ba4Tl13Hg3,"['Ba', 'Tl', 'Hg']",20.0,-44.86944227,0.0013353205820312297,0.0,
15149,As4Ba8O66U16,mp-1229229,Ba4U8As2O33,"['Ba', 'U', 'As', 'O']",94.0,-813.18267127,0.0002336126529254301,0.0,
29096,Ba12Cr6S27U3,mp-21686,Ba4UCr2S9,"['Ba', 'U', 'Cr', 'S']",48.0,-302.30051644,0.016742368885090286,0.0,
15731,Ba8Se12U2,mp-1190418,Ba4USe6,"['Ba', 'U', 'Se']",22.0,-119.95672747,0.0,0.0,
8218,Ba8Cl4N8W2,mp-570453,Ba4W(N2Cl)2,"['Ba', 'W', 'N', 'Cl']",22.0,-145.68674497,0.00020398063387805365,0.0,
18189,Ba8Cu6O18Y2,mp-643409,Ba4Y(CuO3)3,"['Ba', 'Y', 'Cu', 'O']",34.0,-210.5659607,1.1230273443629812e-05,-1.1546319456101628e-14,
11329,Ba8F34Y6,mp-34578,Ba4Y3F17,"['Ba', 'Y', 'F']",48.0,-311.00326632,7.77087060539472e-05,0.0,
29464,B42Ba12O93Pb6Zn12,mp-1195127,Ba4Zn4B14Pb2O31,"['Ba', 'Zn', 'B', 'Pb', 'O']",165.0,-1191.0522065,1.3322676295501878e-14,1.3322676295501878e-14,
29675,Ba4O12Ru3Zr1,mp-6716,Ba4Zr(RuO4)3,"['Ba', 'Zr', 'Ru', 'O']",20.0,-146.38212854,0.00015185547070295513,0.0,
25643,Ba10Ga12H4,mp-643683,Ba5(Ga3H)2,"['Ba', 'Ga', 'H']",26.0,-81.57142705,0.0012240370830829406,0.0,
1846,Ba20I8O48,mp-1194622,Ba5(IO6)2,"['Ba', 'I', 'O']",76.0,-429.82642538,0.00032249255859362336,0.0,
24338,Ba20In16Sb24,mp-1195424,Ba5(In2Sb3)2,"['Ba', 'In', 'Sb']",60.0,-225.15012303,0.00014054593554346795,-8.881784197001252e-16,
9505,Ba10In4Sb12,mp-615760,Ba5(InSb3)2,"['Ba', 'In', 'Sb']",26.0,-101.28899782,0.0013329695883408377,0.0,
15671,Ba10O20Ru4,mp-28908,Ba5(RuO5)2,"['Ba', 'Ru', 'O']",34.0,-224.52661335,1.087300666302582e-05,0.0,
6007,Ba10N12Ti4,mp-28926,Ba5(TiN3)2,"['Ba', 'Ti', 'N']",26.0,-176.16833934,0.0,0.0,
18334,Al5Ba5Pb1,mp-568809,Ba5Al5Pb,"['Ba', 'Al', 'Pb']",11.0,-35.67448759,0.0,0.0,
22017,Al5Ba5Sn1,mp-570677,Ba5Al5Sn,"['Ba', 'Al', 'Sn']",11.0,-36.14878425,0.0,0.0,
7995,Al4Ba20Ir8O44,mp-21742,Ba5AlIr2O11,"['Ba', 'Al', 'Ir', 'O']",76.0,-505.61794322,6.18914823435901e-05,0.0,
30864,Al4Ba20O44Ru8,mp-1214930,Ba5AlRu2O11,"['Ba', 'Al', 'Ru', 'O']",76.0,-515.32902896,0.0012244274897215135,0.0,
9169,As6Ba10Cl2O24,mp-556761,Ba5As3ClO12,"['Ba', 'As', 'Cl', 'O']",42.0,-267.05659659,0.0,0.0,
15080,B6Ba10Br2O18,mp-1199246,Ba5B3BrO9,"['Ba', 'B', 'Br', 'O']",36.0,-250.72344674,9.560921875007011e-05,0.0,
29452,B6Ba10Cl2O18,mp-1201345,Ba5B3ClO9,"['Ba', 'B', 'Cl', 'O']",36.0,-252.40068878,0.00011616860026109066,0.0,
12808,B48Ba60O132,mp-3974,Ba5B4O11,"['B', 'O', 'Ba']",240.0,-1754.38810683,0.0,0.0,
10876,Ba10Bi6,mp-29621,Ba5Bi3,"['Ba', 'Bi']",16.0,-56.85806922,1.509246643083273e-05,0.0,
12962,Ba5Cd2O2Sb4,mp-1104876,Ba5Cd2(Sb2O)2,"['Ba', 'Cd', 'Sb', 'O']",13.0,-54.82635161,0.00023781278995560484,3.552713678800501e-15,
9896,Ba10Cd4F2Sb10,mp-865528,Ba5Cd2Sb5F,"['Ba', 'Cd', 'Sb', 'F']",26.0,-99.50198627,0.005371647649489386,0.0,
5376,Ba10Cl2Cr6O24,mp-1214675,Ba5Cr3ClO12,"['Ba', 'Cr', 'Cl', 'O']",42.0,-281.60606925,0.0,0.0,
6787,Ba10Cr6F2O24,mp-1214531,Ba5Cr3O12F,"['Ba', 'Cr', 'O', 'F']",42.0,-286.32458238,0.00021309739769392877,0.0,
1616,Ba10Cr6O26,mp-1200170,Ba5Cr3O13,"['Ba', 'Cr', 'O']",42.0,-285.68596958,0.0,0.0,
19955,Ba10Cr2N10,mp-29082,Ba5CrN5,"['Ba', 'Cr', 'N']",22.0,-137.7213284,2.015684481460056e-05,0.0,
21804,Al4Ba10Er4O26Zr2,mp-558566,Ba5Er2ZrAl2O13,"['Ba', 'Er', 'Zr', 'Al', 'O']",46.0,-341.06685905,0.0,0.0,
4984,Ba5Er8Ni4O21,mp-1214489,Ba5Er8Ni4O21,"['Ba', 'Er', 'Ni', 'O']",38.0,-268.30576219,8.58480016443508e-05,0.0,
9138,Ba5Ga5Pb1,mp-605650,Ba5Ga5Pb,"['Ba', 'Ga', 'Pb']",11.0,-33.64610997,0.00101649475941068,0.0,
30875,Ba5Ga5Sn1,mp-568967,Ba5Ga5Sn,"['Ba', 'Ga', 'Sn']",11.0,-34.14376278,0.0,0.0,
3740,Ba10Ga12,mp-1228211,Ba5Ga6,"['Ba', 'Ga']",22.0,-64.57078202,0.0007585903773112967,2.6645352591003757e-15,
31466,Ba20Ga4O44Ru8,mp-1215133,Ba5GaRu2O11,"['Ba', 'Ga', 'Ru', 'O']",76.0,-500.57915919,0.0,0.0,
28509,Al4Ba10Ho4O26Zr2,mp-1214508,Ba5Ho2ZrAl2O13,"['Ba', 'Ho', 'Zr', 'Al', 'O']",46.0,-340.71280698,0.00035475018002628644,0.0,
10533,Ba20La4Si24,mp-1195178,Ba5LaSi6,"['Ba', 'La', 'Si']",48.0,-211.49388194,0.0001587222989911652,0.0,
5080,Ba10Li4O30Te6,mp-1228258,Ba5Li2(TeO5)3,"['Ba', 'Li', 'Te', 'O']",50.0,-295.57719271,0.001062054003123869,0.0,
30824,Ba10Li4O30W6,mp-557816,Ba5Li2(WO5)3,"['Ba', 'Li', 'W', 'O']",50.0,-344.77458244,0.0027482291296871963,0.0,
11356,Ba10Li4O30U6,mp-1228411,Ba5Li2U3O15,"['Ba', 'Li', 'U', 'O']",50.0,-391.86791822,0.018953929097699884,0.0,
211,Al4Ba10Lu4O26Zr2,mp-1214534,Ba5Lu2ZrAl2O13,"['Ba', 'Lu', 'Zr', 'Al', 'O']",46.0,-341.93384571,0.0002094618919832314,0.0,
16716,Ba10Cl2Mn6O24,mp-560883,Ba5Mn3ClO12,"['Ba', 'Mn', 'Cl', 'O']",42.0,-273.7175972,0.0,1.2434497875801753e-14,
30619,Ba10F2Mn6O24,mp-1214575,Ba5Mn3O12F,"['Ba', 'Mn', 'O', 'F']",42.0,-277.48039992,0.0004299312202364902,0.0,
2302,Ba10Mn10O28,mp-759718,Ba5Mn5O14,"['Ba', 'Mn', 'O']",48.0,-333.05794668,0.0006324228857428338,0.0,
27568,Ba10Na4O28Ru6,mp-1229142,Ba5Na2Ru3O14,"['Ba', 'Na', 'Ru', 'O']",48.0,-308.96940273,0.00019478056798494237,-4.884981308350689e-14,
22851,Ba10F40Nb6O6,mp-1228715,Ba5Nb3O3F20,"['Ba', 'Nb', 'O', 'F']",62.0,-391.74228287,0.03719521287992755,0.0,
25342,Ba5Nb4O15,mp-3563,Ba5Nb4O15,"['Ba', 'Nb', 'O']",24.0,-192.43182835,0.0,0.0,
5876,Ba5Mn4Nd8O21,mp-19460,Ba5Nd8Mn4O21,"['Ba', 'Nd', 'Mn', 'O']",38.0,-287.64439593,0.0001786098807574632,0.0,
5946,Ba10N2O36Os6,mp-628618,Ba5Os3NO18,"['Ba', 'Os', 'N', 'O']",54.0,-375.37488506,0.004540671089409365,0.0,
5292,Ba10Br2O24P6,mp-561125,Ba5P3BrO12,"['Ba', 'P', 'Br', 'O']",42.0,-293.49259259,2.6645352591003757e-14,-2.6645352591003757e-14,
30080,Ba10Cl2O24P6,mp-558349,Ba5P3ClO12,"['Ba', 'P', 'Cl', 'O']",42.0,-295.1456227,0.0,0.0,
31092,Ba10F2O24P6,mp-1228113,Ba5P3O12F,"['Ba', 'P', 'O', 'F']",42.0,-298.99525262,0.00031400128164982277,2.6645352591003757e-14,
29219,Ba10P8,mp-1105231,Ba5P4,"['Ba', 'P']",18.0,-80.69847975,-1.5987211554602254e-14,-1.5987211554602254e-14,
3420,Ba10I6P10,mp-30221,Ba5P5I3,"['Ba', 'P', 'I']",26.0,-115.01482572,0.010079320827829363,0.0,
11644,Ba15O27Pt6,mp-29787,Ba5Pt2O9,"['Ba', 'Pt', 'O']",48.0,-291.11651642,2.1349267589343413e-06,1.1546319456101628e-14,
29143,Ba10Br2O30Re6,mp-556721,Ba5Re3BrO15,"['Ba', 'Re', 'Br', 'O']",48.0,-357.02410047,0.0,0.0,
21916,Ba10Cl2O30Re6,mp-556647,Ba5Re3ClO15,"['Ba', 'Re', 'Cl', 'O']",48.0,-358.15148243,0.0,0.0,
19929,Ba10I2O30Re6,mp-1214601,Ba5Re3IO15,"['Ba', 'Re', 'I', 'O']",48.0,-355.42747497,0.0,0.0,
12217,Ba10N2O36Re6,mp-555095,Ba5Re3NO18,"['Ba', 'Re', 'N', 'O']",54.0,-402.14412323,3.6843758679516725e-05,0.0,
14106,Ba10O32Re6,mp-698206,Ba5Re3O16,"['Ba', 'Re', 'O']",48.0,-359.13145385,0.006184138134766037,0.0,
4194,Ba10Br4O18Ru4,mp-558725,Ba5Ru2Br2O9,"['Ba', 'Ru', 'Br', 'O']",36.0,-225.87584935,3.1053754339538386e-05,0.0,
6245,Ba10Sb6,mp-9909,Ba5Sb3,"['Ba', 'Sb']",16.0,-59.91509217,1.1489436035017064e-05,0.0,
9607,Ba10Sb8,mp-10089,Ba5Sb4,"['Ba', 'Sb']",18.0,-71.16512942,0.0,-3.552713678800501e-15,
23710,Ba10Br12O8Si2,mp-553884,Ba5Si(Br3O2)2,"['Ba', 'Si', 'Br', 'O']",32.0,-171.57323494,2.3512707523209997e-06,0.0,
1892,Ba10Cl12O8Si2,mp-555087,Ba5Si(Cl3O2)2,"['Ba', 'Si', 'Cl', 'O']",32.0,-179.64737027,1.1366837147086528e-05,0.0,
27682,Ba5Mn4O21Sm8,mp-19471,Ba5Sm8Mn4O21,"['Ba', 'Sm', 'Mn', 'O']",38.0,-288.90648832,0.0,0.0,
26219,Ba10Fe8La4O30Sr2,mp-1228552,Ba5SrLa2Fe4O15,"['Ba', 'Sr', 'La', 'Fe', 'O']",54.0,-367.15806322,0.0005726230237268481,0.0,
1331,Ba10Fe8Nd4O30Sr2,mp-1228568,Ba5SrNd2Fe4O15,"['Ba', 'Sr', 'Nd', 'Fe', 'O']",54.0,-365.41239935,0.0015593092737269387,0.0,
6797,Ba10Cl4O18Ta4,mp-559378,Ba5Ta2Cl2O9,"['Ba', 'Ta', 'Cl', 'O']",36.0,-267.47333779,0.0,0.0,
10806,Ba5O15Ta4,mp-504554,Ba5Ta4O15,"['Ba', 'Ta', 'O']",24.0,-203.51821854,0.0001109757503261477,1.5987211554602254e-14,
18120,Al4Ba10O26Tm4Zr2,mp-1214492,Ba5Tm2ZrAl2O13,"['Ba', 'Tm', 'Zr', 'Al', 'O']",46.0,-341.21264799,0.0002858930927311931,0.0,
21072,Ba5Ni4O21Tm8,mp-1214595,Ba5Tm8Ni4O21,"['Ba', 'Tm', 'Ni', 'O']",38.0,-268.15809415,0.0002984963610188629,0.0,
23075,Ba10Cl2O24V6,mp-23094,Ba5V3ClO12,"['Ba', 'V', 'Cl', 'O']",42.0,-296.13466162,0.0,-8.881784197001252e-16,
12787,Ba10H2O26V6,mp-1228550,Ba5V3HO13,"['Ba', 'V', 'H', 'O']",44.0,-310.21263402,0.00037508352982840165,0.0,
30230,Ba10O28V10,mp-1183410,Ba5V5O14,"['Ba', 'V', 'O']",48.0,-349.59642212,0.0,0.0,
14325,Ba6Bi2O18Te3,mp-1228122,Ba6Bi2(TeO6)3,"['Ba', 'Bi', 'Te', 'O']",29.0,-174.41974874,2.9028833512967367e-05,0.0,
30141,Ag4Ba12Cd2S32Sn8,mp-532680,Ba6CdAg2(SnS4)4,"['Ba', 'Cd', 'Ag', 'Sn', 'S']",58.0,-267.49705372,0.000171432865032628,0.0,
58,Ba6Cu34S27,mp-530144,Ba6Cu34S27,"['Ba', 'Cu', 'S']",67.0,-297.1543134,0.0018473029674881403,0.0,
31744,Al8Ba12Dy4O30,mp-1214541,Ba6Dy2Al4O15,"['Ba', 'Dy', 'Al', 'O']",54.0,-383.64207505,0.0006990812861689122,0.0,
22784,Ba12Dy4Ga8O30,mp-1214605,Ba6Dy2Ga4O15,"['Ba', 'Dy', 'Ga', 'O']",54.0,-355.43529601,0.00011005562357713217,0.0,
19494,Ba12Er4Ga8O30,mp-555481,Ba6Er2Ga4O15,"['Ba', 'Er', 'Ga', 'O']",54.0,-355.81389269,7.283773584720876e-05,0.0,
18249,Ba12Ga10N2,mp-16859,Ba6Ga5N,"['Ba', 'Ga', 'N']",24.0,-80.68080154,0.0009199767268883718,0.0,
28938,Ba12Gd2O36Re6,mp-1229259,Ba6Gd(ReO6)3,"['Ba', 'Gd', 'Re', 'O']",56.0,-440.3430474,0.0,0.0,
11942,Al8Ba12Gd4O30,mp-1214682,Ba6Gd2Al4O15,"['Ba', 'Gd', 'Al', 'O']",54.0,-420.23433868,0.0,0.0,
510,Ba12Fe8Gd4O30,mp-1215063,Ba6Gd2Fe4O15,"['Ba', 'Gd', 'Fe', 'O']",54.0,-402.9147964,-1.4210854715202004e-14,0.0,
16442,Ba12Ga8Gd4O30,mp-1214608,Ba6Gd2Ga4O15,"['Ba', 'Gd', 'Ga', 'O']",54.0,-391.98842591,-2.7533531010703882e-14,0.0,
23619,Ba12Ge10N4,mp-601322,Ba6Ge5N2,"['Ba', 'Ge', 'N']",26.0,-117.93707292,0.0,0.0,