,Composition,MaterialId,Reduced Formula,Elements,NSites,Corrected Energy,Decomposition Energy Per Atom All,Decomposition Energy Per Atom MP,Directory
17740,Bi4O8,mp-557993,BiO2,"['Bi', 'O']",12.0,-67.1649948,0.0,0.0,
5534,Bi2F2O2,mp-753594,BiOF,"['Bi', 'O', 'F']",6.0,-32.49668117,0.0,0.0,
13575,Bi2O24P6Pb6,mp-1227709,BiP3(PbO4)3,"['Bi', 'P', 'Pb', 'O']",38.0,-254.49296129,0.00046568254111889473,0.0,
14396,Bi2H2O24P8,mp-24348,BiP4HO12,"['Bi', 'P', 'H', 'O']",36.0,-246.9484234,1.9311089420881444e-06,0.0,
9291,Bi4O56P20,mp-1214465,BiP5O14,"['Bi', 'P', 'O']",80.0,-561.48193017,0.0,0.0,
4126,Bi2O8P2,mp-1524357,BiPO4,"['Bi', 'P', 'O']",12.0,-81.64185249,0.0,0.0,
27355,Bi2O10P2Pb2,mp-556878,BiPPbO5,"['Bi', 'P', 'Pb', 'O']",16.0,-104.25037756,0.001368938663328656,0.0,
15705,Bi8P8S32,mp-27133,BiPS4,"['Bi', 'P', 'S']",48.0,-220.77324096,0.0005739289746040654,0.0,
9717,Bi1Br1O2Pb1,mp-1227444,BiPbBrO2,"['Bi', 'Pb', 'Br', 'O']",5.0,-25.1691953,0.015070888730468468,0.0,
497,Bi2Cl2O4Pb2,mp-23084,BiPbClO2,"['Bi', 'Pb', 'Cl', 'O']",10.0,-51.51765916,6.566299804333653e-06,0.0,
5936,Bi1I1O2Pb1,mp-1227389,BiPbIO2,"['Bi', 'Pb', 'I', 'O']",5.0,-24.53462072,0.017563212567382358,0.0,
7011,Bi2Pd2,mp-1008488,BiPd,"['Bi', 'Pd']",4.0,-19.42315857,0.0,0.0,
27659,Bi4Pb4Pd8,mp-568476,BiPd2Pb,"['Bi', 'Pd', 'Pb']",16.0,-76.58519649,0.0,0.0,
26826,Bi4Pd12,mp-30463,BiPd3,"['Bi', 'Pd']",16.0,-81.90291015,-1.7763568394002505e-14,0.0,
30149,Bi4Pd4Se4,mp-1095370,BiPdSe,"['Bi', 'Pd', 'Se']",12.0,-54.74547775,0.0,0.0,
29369,Bi2Pt2,mp-1066078,BiPt,"['Bi', 'Pt']",4.0,-21.01352061,0.0003835231896971436,0.0,
14513,Bi1Pb1Pt2,mp-1227397,BiPt2Pb,"['Bi', 'Pt', 'Pb']",4.0,-20.76134655,0.0038644504516582856,0.0,
19650,Bi4Pt4Se4,mp-1103607,BiPtSe,"['Bi', 'Pt', 'Se']",12.0,-57.95093184,0.0,0.0,
17,Bi2Rh2,mp-1064554,BiRh,"['Bi', 'Rh']",4.0,-23.17427915,0.0,0.0,
19656,Bi4Rh4S4,mp-1103098,BiRhS,"['Bi', 'Rh', 'S']",12.0,-66.29028916,0.00012483928710960157,0.0,
12560,Bi4Rh4Se4,mp-1101765,BiRhSe,"['Bi', 'Rh', 'Se']",12.0,-63.79657787,0.0,0.0,
6351,Bi4S8,mp-971673,BiS2,"['Bi', 'S']",12.0,-51.75051931,0.001321287154939732,0.0,
24988,Bi4Br4S4,mp-23324,BiSBr,"['Bi', 'S', 'Br']",12.0,-45.14862791,0.009026137403157719,0.0,
6030,Bi4Cl4S4,mp-23318,BiSCl,"['Bi', 'S', 'Cl']",12.0,-47.192749,0.006316380228676977,0.0,
4041,Bi1Sb1,mp-1227290,BiSb,"['Bi', 'Sb']",2.0,-8.02875942,0.00010059853271471297,0.0,
3232,Bi4O96P24Sb12,mp-1237522,BiSb3(PO4)6,"['Bi', 'Sb', 'P', 'O']",136.0,-924.30365783,0.0005211783524821101,0.0,
5994,Bi1F20Sb3,mp-1227565,BiSb3F20,"['Bi', 'Sb', 'F']",24.0,-104.53195839,0.0002809746761069931,0.0,
29728,Bi2O8Sb2,mp-23018,BiSbO4,"['Bi', 'Sb', 'O']",12.0,-72.2231473,0.00031975116376070645,-5.329070518200751e-15,
29905,Bi4Pt4Sb4,mp-1227441,BiSbPt,"['Bi', 'Sb', 'Pt']",12.0,-60.57414886,0.0,0.0,
4105,Bi4Se8,mp-1095302,BiSe2,"['Bi', 'Se']",12.0,-46.94828077,0.004934715510512611,0.0,
16803,Bi4Cl4Se4,mp-610491,BiSeCl,"['Bi', 'Se', 'Cl']",12.0,-44.67906528,0.02662390875488274,0.0,
23722,Bi4Cl4O12Se4,mp-556378,BiSeClO3,"['Bi', 'Se', 'Cl', 'O']",24.0,-120.82109338,0.0005185599316410716,0.0,
28919,Bi1Br1Te1,mp-33723,BiTeBr,"['Bi', 'Te', 'Br']",3.0,-10.18038139,0.0010588161466467128,0.0,
19543,Bi2Cl2Te2,mp-28944,BiTeCl,"['Bi', 'Te', 'Cl']",6.0,-21.34563474,0.00014626739339185235,0.0,
30599,Bi1I1Te1,mp-22965,BiTeI,"['Bi', 'Te', 'I']",3.0,-9.66763774,0.06557300851956338,0.0,
29814,Bi4N4O24Te4,mp-1195032,BiTeNO6,"['Bi', 'Te', 'N', 'O']",36.0,-211.19891465,0.0007503770182291092,0.0,
20733,Bi4O16Te4,mp-863374,BiTeO4,"['Bi', 'Te', 'O']",24.0,-135.04062715,0.000991660498047331,0.0,
21569,Bi4Pt4Te4,mp-29638,BiTePt,"['Bi', 'Te', 'Pt']",12.0,-56.45431015,0.000759521496582316,0.0,
1613,Br4,mp-23154,Br,['Br'],4.0,-6.54778614,0.038648152461852936,0.0,
6089,Br16O24,mp-28933,Br2O3,"['Br', 'O']",40.0,-136.40201414,5.799610937451405e-05,0.0,
9070,Br12F40N4O16,mp-554129,Br3N(O2F5)2,"['Br', 'N', 'O', 'F']",72.0,-258.65600997,0.0,0.0,
8269,Br2Cl2,mp-1066781,BrCl,"['Br', 'Cl']",4.0,-7.18122469,0.00020690237487785978,0.0,
28108,Br2F6,mp-23297,BrF3,"['Br', 'F']",8.0,-21.91018221,0.001590741511230398,0.0,
28586,Br2F10,mp-27987,BrF5,"['Br', 'F']",12.0,-33.71462697,0.0004232875748702014,0.0,
31192,Br4N4O12,mp-29526,BrNO3,"['Br', 'N', 'O']",20.0,-101.75463911,5.4834648484103354e-06,0.0,
17102,Br2F2O4,mp-36262,BrO2F,"['Br', 'O', 'F']",8.0,-28.33437506,0.0028609353405766313,0.0,
9053,C4,mp-2516584,C,['C'],4.0,-36.91466197,0.0,0.0,
17894,C72Cl36N84,mp-1214997,C6N7Cl3,"['C', 'N', 'Cl']",192.0,-1411.72573325,0.0,0.0,
23407,Br64C16,mp-680422,CBr4,"['C', 'Br']",80.0,-235.56179791,0.0012713768330079311,0.0,
23912,C16Cl64,mp-1004532,CCl4,"['C', 'Cl']",80.0,-278.05183258,0.0009079826425781867,0.0,
6565,C2F8,mp-1167,CF4,"['C', 'F']",10.0,-51.88190706,7.519976171810328e-05,0.0,
25197,C6Cl6N6,mp-571324,CNCl,"['C', 'N', 'Cl']",18.0,-115.92110042,2.938408311692342e-05,0.0,
15677,C4O8,mp-20066,CO2,"['C', 'O']",12.0,-92.23629884,0.0003688344596355364,0.0,
24486,Ca1,mp-45,Ca,['Ca'],1.0,-2.00559988,0.0,0.0,
14290,Ag4Ca2O8,mp-1047036,Ca(AgO2)2,"['Ca', 'Ag', 'O']",14.0,-68.27923057,8.718148856523555e-05,4.440892098500626e-15,
17525,Al8Ca1Cu4,mp-10877,Ca(Al2Cu)4,"['Ca', 'Al', 'Cu']",13.0,-51.8319975,-7.105427357601002e-15,0.0,
3637,Al8Ca1Fe4,mp-1104462,Ca(Al2Fe)4,"['Ca', 'Al', 'Fe']",13.0,-70.38152925,0.0021639299504201404,0.0,
512,Al32Ca4Co8,mp-17871,Ca(Al4Co)2,"['Ca', 'Al', 'Co']",44.0,-203.20261891,0.0001900992356169695,0.0,
6290,Al8Ca4Cl32,mp-570703,Ca(AlCl4)2,"['Ca', 'Al', 'Cl']",44.0,-175.44682306,0.00021524461913902115,-1.7763568394002505e-15,
31544,Al2Ca1Ga2,mp-9690,Ca(AlGa)2,"['Ca', 'Al', 'Ga']",5.0,-17.29027485,0.0,0.0,
31195,Al16Ca8S32,mp-14422,Ca(AlS2)2,"['Ca', 'Al', 'S']",56.0,-287.26491494,-2.6645352591003757e-15,-2.6645352591003757e-15,
8182,Al4Ca2Se8,mp-36988,Ca(AlSe2)2,"['Ca', 'Al', 'Se']",14.0,-63.7741357,0.0028482783342616003,-1.7763568394002505e-15,
16572,Al2Ca1Si2,mp-7704,Ca(AlSi)2,"['Ca', 'Al', 'Si']",5.0,-21.84505476,2.0151515624178273e-05,0.0,
9193,Al2Ca1Zn2,mp-30175,Ca(AlZn)2,"['Ca', 'Al', 'Zn']",5.0,-13.46358414,0.0065213769560523716,0.0,
22085,As4Ca1Rh6,mp-16044,Ca(As2Rh3)2,"['Ca', 'As', 'Rh']",11.0,-71.98674124,0.0006192656019177178,0.0,
29363,As2Ca1O6,mp-4555,Ca(AsO3)2,"['Ca', 'As', 'O']",9.0,-56.95889325,0.0,0.0,
14692,As2Ca1Pd2,mp-5166,Ca(AsPd)2,"['Ca', 'As', 'Pd']",5.0,-25.39078552,0.010694762513158373,0.0,
29136,As2Ca1Ru2,mp-5610,Ca(AsRu)2,"['Ca', 'As', 'Ru']",5.0,-33.16451584,0.0025971676933593812,0.0,
12002,Au2Ca1F12,mp-28153,Ca(AuF6)2,"['Ca', 'Au', 'F']",15.0,-52.9191871,0.005756703912753736,0.0,
16260,Au4Ca2O8,mp-2898,Ca(AuO2)2,"['Ca', 'Au', 'O']",14.0,-71.72143811,-2.6645352591003757e-15,-2.6645352591003757e-15,
8557,B4Ca1Pt6,mp-1227448,Ca(B2Pt3)2,"['Ca', 'B', 'Pt']",11.0,-69.45973675,0.040464014501615075,0.0,
8841,B24Ca4O40,mp-558358,Ca(B3O5)2,"['Ca', 'B', 'O']",68.0,-540.78891813,4.528591453833997e-06,0.0,
18390,B4C4Ca2,mp-10289,Ca(BC)2,"['Ca', 'B', 'C']",10.0,-70.95505554,0.0,0.0,
16726,B24Ca2H24,mp-1196257,Ca(BH)12,"['Ca', 'B', 'H']",50.0,-262.18997921,0.0003164265421879975,0.0,
30649,B4Ca2H16,mp-1190619,Ca(BH4)2,"['Ca', 'B', 'H']",22.0,-92.71034787,4.187838245073294e-06,0.0,
4444,B4Ca2Ir4,mp-14445,Ca(BIr)2,"['Ca', 'B', 'Ir']",10.0,-72.90340842,0.0004924404707020713,0.0,
15822,B16Ca8O32,mp-8056,Ca(BO2)2,"['Ca', 'B', 'O']",56.0,-434.46749662,1.3819425223715598e-05,0.0,
18576,B4Ca2Rh4,mp-8431,Ca(BRh)2,"['Ca', 'B', 'Rh']",10.0,-66.18785107,0.0017402531074228733,2.3092638912203256e-14,
31446,As2Be2Ca1,mp-1018630,Ca(BeAs)2,"['Ca', 'Be', 'As']",5.0,-21.85685005,0.0,0.0,
9619,Be4Ca2N4,mp-11918,Ca(BeN)2,"['Ca', 'Be', 'N']",10.0,-63.36331049,0.0,0.0,
11649,Be2Ca1P2,mp-1017548,Ca(BeP)2,"['Ca', 'Be', 'P']",5.0,-23.95671276,0.0,0.0,
2575,Au12Bi4Ca2,mp-1227488,Ca(BiAu3)2,"['Ca', 'Bi', 'Au']",18.0,-64.16806052,0.0029539623356180655,0.0,
11190,Bi16Ca8O32,mp-558751,Ca(BiO2)2,"['Ca', 'Bi', 'O']",56.0,-334.49050198,-2.6645352591003757e-15,-2.6645352591003757e-15,
18242,As2Ca1Cd2,mp-7067,Ca(CdAs)2,"['Ca', 'Cd', 'As']",5.0,-16.11236032,0.0,0.0,
712,Au4Ca1Cd2,mp-1078064,Ca(CdAu2)2,"['Ca', 'Cd', 'Au']",7.0,-20.08754431,0.0028679898939736326,0.0,
27309,Ca1Cd2P2,mp-9570,Ca(CdP)2,"['Ca', 'Cd', 'P']",5.0,-17.49362177,0.0,0.0,
561,Ca1Cd2Sb2,mp-7430,Ca(CdSb)2,"['Ca', 'Cd', 'Sb']",5.0,-14.38833057,0.0007457161391601907,0.0,
16139,Ca4Cl8O24,mp-768870,Ca(ClO3)2,"['Ca', 'Cl', 'O']",36.0,-168.15904928,0.0024952267057294364,0.0,
16055,As2Ca1Co2,mp-569298,Ca(CoAs)2,"['Ca', 'Co', 'As']",5.0,-28.59893277,0.0004908507851553168,0.0,
5671,Ca4Co8O16,mp-17544,Ca(CoO2)2,"['Ca', 'Co', 'O']",28.0,-172.76149379,0.060925776333704995,0.0,
2974,Ca1Co4O8,mp-1385949,Ca(CoO2)4,"['Ca', 'Co', 'O']",13.0,-78.23405794,0.033052944293881836,-1.2434497875801753e-14,
28995,Ca1Co2P2,mp-3210,Ca(CoP)2,"['Ca', 'Co', 'P']",5.0,-31.32101689,0.0001948153593751556,0.0,
75,Ca1Co2Si2,mp-1070152,Ca(CoSi)2,"['Ca', 'Co', 'Si']",5.0,-30.17348823,0.0019009013632809157,0.0,
11319,Ca2Cu8P4,mp-22295,Ca(Cu2P)2,"['Ca', 'Cu', 'P']",14.0,-64.72664442,0.00020940648855560795,-4.440892098500626e-15,
8286,Ca2Cu4O8,mp-1047437,Ca(CuO2)2,"['Ca', 'Cu', 'O']",14.0,-78.43911151,2.3468105469603984e-05,0.0,
5984,Ca1Cu2Si2,mp-5486,Ca(CuSi)2,"['Ca', 'Cu', 'Si']",5.0,-23.05715196,0.0002589451582037938,0.0,
13434,Ca1Cu2Sn2,mp-568974,Ca(CuSn)2,"['Ca', 'Cu', 'Sn']",5.0,-19.81189505,0.004144351206054608,0.0,
16927,Ca4Er8S16,mp-1194059,Ca(ErS2)2,"['Ca', 'Er', 'S']",28.0,-169.53789184,0.0005798298284043213,-5.329070518200751e-15,
9361,As4Ca2Fe4,mp-1068300,Ca(FeAs)2,"['Ca', 'Fe', 'As']",10.0,-61.87521512,0.0,0.0,
10308,Ca1Fe2P2,mp-5597,Ca(FeP)2,"['Ca', 'Fe', 'P']",5.0,-33.99166579,0.0015638451738277936,0.0,
27677,Ca1Fe4Sb12,mp-13464,Ca(FeSb3)4,"['Ca', 'Fe', 'Sb']",17.0,-88.03197834,0.0019044974919575353,0.0,
13,Ca2Ga12Te20,mp-675750,Ca(Ga3Te5)2,"['Ca', 'Ga', 'Te']",34.0,-119.60231131,0.0007741977412680789,0.0,
22807,As2Ca1Ga2,mp-1070099,Ca(GaAs)2,"['Ca', 'Ga', 'As']",5.0,-20.53848659,0.007190301018554557,0.0,
31689,Ca2Ga4P4,mp-1078849,Ca(GaP)2,"['Ca', 'Ga', 'P']",10.0,-44.50588138,0.0,0.0,
10891,Ca8Ga16S32,mp-14423,Ca(GaS2)2,"['Ca', 'Ga', 'S']",56.0,-259.45063303,8.606440569192131e-05,0.0,
25359,Ca8Ga16Se32,mp-13873,Ca(GaSe2)2,"['Ca', 'Ga', 'Se']",56.0,-232.48958266,0.0003896350299941176,0.0,
16131,Ca1Ge2Ir2,mp-16259,Ca(GeIr)2,"['Ca', 'Ge', 'Ir']",5.0,-32.26412455,0.0,0.0,
11948,Ca1Ge2Pd2,mp-16260,Ca(GePd)2,"['Ca', 'Ge', 'Pd']",5.0,-25.18518437,0.0,0.0,
3779,Ca2Ge4Pt4,mp-1091390,Ca(GePt)2,"['Ca', 'Ge', 'Pt']",10.0,-54.52255654,0.0,0.0,
5723,Ca1Ge2Rh2,mp-16261,Ca(GeRh)2,"['Ca', 'Ge', 'Rh']",5.0,-29.9819664,0.0,0.0,
28577,Ca1Ge2Ru2,mp-19791,Ca(GeRu)2,"['Ca', 'Ge', 'Ru']",5.0,-32.37878433,0.0,0.0,
14226,Ca4H16N8,mp-644307,Ca(H2N)2,"['Ca', 'H', 'N']",28.0,-145.77455968,0.0013806418345465588,0.0,
9239,Ca1H2O2,mp-23879,Ca(HO)2,"['Ca', 'H', 'O']",5.0,-28.14137434,5.127640918090037e-05,0.0,
10006,Ca4Ho8S16,mp-1194276,Ca(HoS2)2,"['Ca', 'Ho', 'S']",28.0,-169.61494999,0.0022386329952519546,-5.329070518200751e-15,
247,Ca4I8O24,mp-27535,Ca(IO3)2,"['Ca', 'I', 'O']",36.0,-177.48870793,6.292940755159293e-05,0.0,
4734,Ca1Cu6In6,mp-1227648,Ca(InCu)6,"['Ca', 'In', 'Cu']",13.0,-44.45401273,0.0023894907360277884,0.0,
3832,Ca2In4P4,mp-1079772,Ca(InP)2,"['Ca', 'In', 'P']",10.0,-42.49122044,0.00047970160546917384,0.0,
17227,Ca2La16Se24,mp-674712,Ca(La2Se3)4,"['Ca', 'La', 'Se']",42.0,-254.46620045,0.0,0.0,
3966,Ca4Lu8S16,mp-505362,Ca(LuS2)2,"['Ca', 'Lu', 'S']",28.0,-169.07159752,0.0,0.0,
4048,As2Ca1Mg2,mp-9564,Ca(MgAs)2,"['Ca', 'Mg', 'As']",5.0,-19.2349089,0.0,0.0,
5066,Bi2Ca1Mg2,mp-29208,Ca(MgBi)2,"['Ca', 'Mg', 'Bi']",5.0,-15.6297789,0.0,0.0,
29444,Ca1Mg2Sb2,mp-9565,Ca(MgSb)2,"['Ca', 'Mg', 'Sb']",5.0,-17.01804214,0.0,0.0,
4287,Ca4N8O24,mp-3142,Ca(NO3)2,"['Ca', 'N', 'O']",36.0,-231.8019874,1.8589246959521688e-06,0.0,
25712,B6Ca1Ni12,mp-21312,Ca(Ni2B)6,"['Ca', 'Ni', 'B']",19.0,-118.16803932,0.0,0.0,
7215,Ca2Ni8Sn4,mp-510484,Ca(Ni2Sn)2,"['Ca', 'Ni', 'Sn']",14.0,-71.13281865,0.0012159041852672914,0.0,
8223,As2Ca1Ni2,mp-4744,Ca(NiAs)2,"['Ca', 'Ni', 'As']",5.0,-26.21324331,3.4899414025346687e-08,0.0,
16758,Ca1Ge2Ni2,mp-2949,Ca(NiGe)2,"['Ca', 'Ni', 'Ge']",5.0,-25.54533969,0.0,0.0,
24211,Ca4Ni8O16,mp-1342975,Ca(NiO2)2,"['Ca', 'Ni', 'O']",28.0,-148.64842372,0.021594060457587716,0.0,
27737,Ca1Ni2P2,mp-4064,Ca(NiP)2,"['Ca', 'Ni', 'P']",5.0,-28.64930527,0.0026069788369147417,0.0,
11394,Ca3Ir6P6,mp-11168,Ca(PIr)2,"['Ca', 'P', 'Ir']",15.0,-104.97495939,0.0,0.0,
6699,Ca8O48P16,mp-5680,Ca(PO3)2,"['Ca', 'P', 'O']",72.0,-521.16009657,4.5092940538893345e-05,0.0,
21600,Ca1P2Pd2,mp-6926,Ca(PPd)2,"['Ca', 'P', 'Pd']",5.0,-27.43344091,0.00038037573925819856,-4.440892098500626e-15,
11449,Ca1P2Rh2,mp-8580,Ca(PRh)2,"['Ca', 'P', 'Rh']",5.0,-32.36031014,0.0029081929380998517,-2.3092638912203256e-14,
11456,Ca1P2Ru2,mp-5157,Ca(PRu)2,"['Ca', 'P', 'Ru']",5.0,-36.01372209,0.0022894565117219656,3.552713678800501e-15,
31746,Ca4O16Rh8,mp-17998,Ca(RhO2)2,"['Ca', 'Rh', 'O']",28.0,-185.31041244,-3.552713678800501e-15,-3.552713678800501e-15,
8278,Ca1O6Sb2,mp-9125,Ca(SbO3)2,"['Ca', 'Sb', 'O']",9.0,-57.16788978,0.0,0.0,
29197,Au2Ca1Si2,mp-7364,Ca(SiAu)2,"['Ca', 'Si', 'Au']",5.0,-21.79447059,0.0036241925468747382,0.0,
28998,Ca1Ni2Si2,mp-5292,Ca(SiNi)2,"['Ca', 'Si', 'Ni']",5.0,-27.64191188,-4.440892098500626e-15,2.6645352591003757e-15,
5146,Ca1Pd2Si2,mp-567769,Ca(SiPd)2,"['Ca', 'Si', 'Pd']",5.0,-27.19644381,0.000571351525390007,0.0,
13572,Ca1Rh2Si2,mp-1069956,Ca(SiRh)2,"['Ca', 'Si', 'Rh']",5.0,-32.44769692,0.00222502640039135,0.0,
2,Ca1S8Ti4,mp-1386933,Ca(TiS2)4,"['Ca', 'Ti', 'S']",13.0,-85.93985923,0.0,0.0,
8932,Ca1S16Ti8,mp-1048589,Ca(TiS2)8,"['Ca', 'Ti', 'S']",25.0,-166.08743699,0.000349121962525345,2.4868995751603507e-14,
25972,Ca4S16Tm8,mp-1194132,Ca(TmS2)2,"['Ca', 'Tm', 'S']",28.0,-168.8404322,0.0001240906529007546,0.0,
29154,Ca4S16Y8,mp-18642,Ca(YS2)2,"['Ca', 'Y', 'S']",28.0,-184.70496984,0.004462306739672073,-6.217248937900877e-15,
11009,As2Ca1Zn2,mp-9571,Ca(ZnAs)2,"['Ca', 'Zn', 'As']",5.0,-17.14315031,0.0,1.3322676295501878e-15,
18610,Ca1Ge2Zn2,mp-13911,Ca(ZnGe)2,"['Ca', 'Zn', 'Ge']",5.0,-15.39474533,0.0,0.0,
21155,Ca1N2Zn2,mp-1029258,Ca(ZnN)2,"['Ca', 'Zn', 'N']",5.0,-23.09099391,3.282505566382099e-05,0.0,
13042,Ca1P2Zn2,mp-9569,Ca(ZnP)2,"['Ca', 'Zn', 'P']",5.0,-18.85552393,0.0,0.0,
22682,Ca1Sb2Zn2,mp-7429,Ca(ZnSb)2,"['Ca', 'Zn', 'Sb']",5.0,-15.01622766,0.0003864061713865219,0.0,
532,Ag2Ca20O56P14,mp-1202534,Ca10Ag(PO4)7,"['Ca', 'Ag', 'P', 'O']",92.0,-656.48342725,0.0005567998046842604,-1.0746958878371515e-13,
28225,Ca40Mg8Sb36,mp-569202,Ca10Mg2Sb9,"['Ca', 'Mg', 'Sb']",84.0,-320.12550084,0.0,0.0,
2692,C1Ca10O27P6,mp-1195864,Ca10P6CO27,"['Ca', 'P', 'C', 'O']",44.0,-319.96877895,0.0003533237571025083,2.7533531010703882e-14,
21403,Ca20O48P12S2,mp-686464,Ca10P6SO24,"['Ca', 'P', 'S', 'O']",82.0,-586.16656527,0.004567146573934089,-2.6645352591003757e-14,
666,Ca10O24P6Se1,mp-17516,Ca10P6SeO24,"['Ca', 'P', 'Se', 'O']",41.0,-292.44425604,-7.105427357601002e-15,0.0,
21844,Ca20Pt14Si6,mp-1205012,Ca10Si3Pt7,"['Ca', 'Si', 'Pt']",40.0,-194.46940965,0.0,0.0,
14706,Ca10F1Si6,mp-1227429,Ca10Si6F,"['Ca', 'Si', 'F']",17.0,-67.82436255,2.149148667207612e-05,0.0,
18239,Ca22O48Re8,mp-29532,Ca11(ReO6)4,"['Ca', 'Re', 'O']",78.0,-574.92330708,0.00018995455328596478,0.0,
30499,Al14Ca11O32,mp-33318,Ca11Al14O32,"['Ca', 'Al', 'O']",57.0,-407.37118568,4.430744244388052e-06,0.0,
12638,Al2Ca22Sb18,mp-1214215,Ca11AlSb9,"['Ca', 'Al', 'Sb']",42.0,-167.02157198,0.00016996936570734533,0.0,
29173,Bi20Ca22,mp-27298,Ca11Bi10,"['Ca', 'Bi']",42.0,-155.78914657,0.00013423752139107847,0.0,
1549,Ca22Ga2Sb18,mp-1214384,Ca11GaSb9,"['Ca', 'Ga', 'Sb']",42.0,-165.46330909,8.413942522267348e-06,7.105427357601002e-15,
23769,Ca22In2Sb18,mp-29722,Ca11InSb9,"['Ca', 'In', 'Sb']",42.0,-164.81803841,0.0,8.881784197001252e-16,
14958,Ca22Sb20,mp-12241,Ca11Sb10,"['Ca', 'Sb']",42.0,-166.42270175,0.0006944849330361436,0.0,
4069,C32Ca44Sn12,mp-1198370,Ca11Sn3C8,"['Ca', 'Sn', 'C']",88.0,-462.31344988,0.0021292510751065308,0.0,
7613,Al4Ca56Sb44,mp-567799,Ca14AlSb11,"['Ca', 'Al', 'Sb']",104.0,-412.32598852,0.0024598764791168293,0.0,
22642,As44Ca56Ga4,mp-568790,Ca14GaAs11,"['Ca', 'Ga', 'As']",104.0,-448.8592875,0.00012408541165864762,0.0,
4620,As44Ca56Mn4,mp-532462,Ca14MnAs11,"['Ca', 'Mn', 'As']",104.0,-471.17884606,0.0005802953590743343,-4.440892098500626e-15,
8193,Bi44Ca56Mn4,mp-570149,Ca14MnBi11,"['Ca', 'Mn', 'Bi']",104.0,-404.13406065,0.0,0.0,
31535,Ca56Mn4P44,mp-532160,Ca14MnP11,"['Ca', 'Mn', 'P']",104.0,-496.75787145,0.04957846665790289,0.0,
26988,Ca56Mn4Sb44,mp-568798,Ca14MnSb11,"['Ca', 'Mn', 'Sb']",104.0,-431.83502091,9.9467004956999e-05,0.0,
4285,Ca32Sb22,mp-1227708,Ca16Sb11,"['Ca', 'Sb']",54.0,-210.41361058,0.0,0.0,
6533,Ca18Eu2O48P12S3,mp-677016,Ca18Eu2P12(SO16)3,"['Eu', 'Ca', 'P', 'S', 'O']",83.0,-607.11396542,0.0060318548795175175,0.0,
15594,Ca19H54Mg8,mp-734733,Ca19(Mg4H27)2,"['Ca', 'Mg', 'H']",81.0,-270.1324384,0.0,0.0,
15205,Ca19In8N7,mp-642331,Ca19In8N7,"['Ca', 'In', 'N']",34.0,-141.90356713,6.070163145466267e-07,-3.552713678800501e-15,
27999,Ca2Pb3Tl3,mp-1227788,Ca2(TlPb)3,"['Ca', 'Tl', 'Pb']",8.0,-24.56378306,0.0,0.0,
29519,Au9Ca2Zn3,mp-1227416,Ca2(ZnAu3)3,"['Ca', 'Zn', 'Au']",14.0,-43.56045626,0.0,0.0,
4674,Ca20Cd3Ga9,mp-1227579,Ca20(CdGa3)3,"['Ca', 'Cd', 'Ga']",32.0,-81.71113996,0.00013386324951181194,0.0,
435,Bi36Ca42Cd8,mp-1214964,Ca21(Cd2Bi9)2,"['Ca', 'Cd', 'Bi']",86.0,-298.06951789,9.263070766118986e-05,0.0,
23906,As36Ca42Zn8,mp-1194550,Ca21(Zn2As9)2,"['Ca', 'Zn', 'As']",86.0,-355.30178415,0.00013986169603974474,0.0,
3126,Ca42Sb36Zn8,mp-1194667,Ca21(Zn2Sb9)2,"['Ca', 'Zn', 'Sb']",86.0,-322.81804599,0.00011811473746448087,-6.661338147750939e-15,
18303,Ca28Ga11,mp-568793,Ca28Ga11,"['Ca', 'Ga']",39.0,-101.59098768,0.0,0.0,
26196,Ag14Ca4,mp-16770,Ca2Ag7,"['Ca', 'Ag']",18.0,-51.89260596,0.0002629392881945414,0.0,
29631,Ag1Ca2Pb1,mp-864991,Ca2AgPb,"['Ca', 'Ag', 'Pb']",4.0,-12.43326318,0.0008204685294592728,0.0,
9974,Ag1Ca2Pd2,mp-1068053,Ca2AgPd2,"['Ca', 'Ag', 'Pd']",5.0,-20.27128312,0.0,0.0,
11562,Ag1Ca2Sn1,mp-867751,Ca2AgSn,"['Ca', 'Ag', 'Sn']",4.0,-12.99543646,0.0035779997155760412,0.0,
29880,Al4Ca4H4O16Si2,mp-1227593,Ca2Al2Si(HO4)2,"['Ca', 'Al', 'Si', 'H', 'O']",30.0,-206.83484622,0.001047671572917075,0.0,
22687,Al8Ca8O36Sn8,mp-1196891,Ca2Al2Sn2O9,"['Ca', 'Al', 'Sn', 'O']",60.0,-408.80252037,0.0001642031432158575,-1.2434497875801753e-14,
14626,Al12Ca8H12O32,mp-1198782,Ca2Al3H3O8,"['Ca', 'Al', 'H', 'O']",64.0,-421.99887131,0.0001455654687498864,0.0,
27040,Al32Ca8O60Pb4,mp-1200432,Ca2Al8PbO15,"['Ca', 'Al', 'Pb', 'O']",104.0,-751.31511323,0.0,0.0,
4136,Al1Ca2H10I1O8,mp-677248,Ca2AlH10IO8,"['Ca', 'Al', 'H', 'I', 'O']",22.0,-118.37075467,0.0005747716130688474,0.0,
17996,Al1Ca2P3Pt7,mp-1227376,Ca2AlP3Pt7,"['Ca', 'Al', 'P', 'Pt']",13.0,-78.34395618,0.0018785773497596026,0.0,
11095,Al2Ca4F18Pb2,mp-1193801,Ca2AlPbF9,"['Ca', 'Al', 'Pb', 'F']",26.0,-146.99690201,0.0004974681400238268,0.0,
9375,Al2Ca4Pd4,mp-1078304,Ca2AlPd2,"['Ca', 'Al', 'Pd']",10.0,-44.03286512,0.0002695487910164829,0.0,
8560,Al2Ca4Pt4,mp-1078362,Ca2AlPt2,"['Ca', 'Al', 'Pt']",10.0,-49.89686329,0.0002375296425789486,0.0,
20095,Al4Ca8O20V4,mp-1251643,Ca2AlVO5,"['Ca', 'Al', 'V', 'O']",36.0,-260.07063782,0.0006501442318516126,0.0,
15270,Al1Ca2Zn16,mp-1227383,Ca2AlZn16,"['Ca', 'Al', 'Zn']",19.0,-31.49460417,0.008271379866943152,-2.886579864025407e-15,
5602,As2Ca2O7,mp-6929,Ca2As2O7,"['Ca', 'As', 'O']",11.0,-70.78492947,0.0,0.0,
15552,As24Ca16,mp-31010,Ca2As3,"['Ca', 'As']",40.0,-179.05426243,0.00038141532421853697,0.0,
18345,As4Ca8Cl4O16,mp-560595,Ca2AsClO4,"['Ca', 'As', 'Cl', 'O']",32.0,-195.94292817,2.342770141616768e-05,0.0,
10144,As1Ca2I1,mp-28554,Ca2AsI,"['Ca', 'As', 'I']",4.0,-15.82769848,0.0,0.0,
25026,Au2Ca4N2,mp-29175,Ca2AuN,"['Ca', 'Au', 'N']",8.0,-37.69580641,0.0,0.0,
15128,B8Ca8O20,mp-1019560,Ca2B2O5,"['Ca', 'B', 'O']",36.0,-271.43920858,0.0,0.0,
30506,B12Ca8Cl4H16O32,mp-1204342,Ca2B3H4ClO8,"['Ca', 'B', 'H', 'Cl', 'O']",72.0,-471.19551582,0.0010678683854159488,0.0,