,Composition,MaterialId,Reduced Formula,Elements,NSites,Corrected Energy,Decomposition Energy Per Atom All,Decomposition Energy Per Atom MP,Directory
16457,Ba12Ga8Ho4O30,mp-1214596,Ba6Ho2Ga4O15,"['Ba', 'Ho', 'Ga', 'O']",54.0,-355.57975778,0.0005628894184264155,0.0,
29372,Ba12In10N2,mp-672306,Ba6In5N,"['Ba', 'In', 'N']",24.0,-77.97254699,0.0036650775040709682,0.0,
4619,Ba12Co8La4O30,mp-1228747,Ba6La2Co4O15,"['Ba', 'La', 'Co', 'O']",54.0,-351.76880876,0.009044123078703947,0.0,
6149,Ba12Fe8La4O30,mp-1228690,Ba6La2Fe4O15,"['Ba', 'La', 'Fe', 'O']",54.0,-366.19177454,0.0019212442317844136,0.0,
7310,Ba6Lu2O18W3,mp-16928,Ba6Lu2(WO6)3,"['Ba', 'Lu', 'W', 'O']",29.0,-213.19205687,0.0003519418480610881,0.0,
9713,Al8Ba12Lu4O30,mp-1214530,Ba6Lu2Al4O15,"['Ba', 'Lu', 'Al', 'O']",54.0,-384.47082015,0.001369157197626869,0.0,
9810,Ba12Ga8Lu4O30,mp-1214574,Ba6Lu2Ga4O15,"['Ba', 'Lu', 'Ga', 'O']",54.0,-356.10888798,0.002281176911168359,0.0,
17028,Ba12Mn10O32,mp-30895,Ba6Mn5O16,"['Ba', 'Mn', 'O']",54.0,-370.56653968,2.6645352591003757e-14,-5.417888360170764e-14,
9517,As4Ba12Na4O34Ru4,mp-554687,Ba6Na2As2Ru2O17,"['Ba', 'Na', 'As', 'Ru', 'O']",58.0,-371.48110555,0.00024318791758837222,0.0,
14333,Ba6Na2Nb2O17P2,mp-556637,Ba6Na2Nb2P2O17,"['Ba', 'Na', 'Nb', 'P', 'O']",29.0,-208.76528389,0.0001291267052536682,0.0,
29277,Ba12Na4O34P4Ru4,mp-774691,Ba6Na2P2Ru2O17,"['Ba', 'Na', 'P', 'Ru', 'O']",58.0,-390.27444835,0.0006724035156251418,0.0,
16537,Ba12Na4O30Si8,mp-560889,Ba6Na2Si4O15,"['Ba', 'Na', 'Si', 'O']",54.0,-373.29702635,0.00021733068576335057,0.0,
3714,Ba12Mn4Na4O34Ta4,mp-1214895,Ba6Na2Ta2Mn2O17,"['Ba', 'Na', 'Ta', 'Mn', 'O']",58.0,-413.78167333,0.006027794317081003,0.0,
30215,Ba12Na4O34Ru4V4,mp-19501,Ba6Na2V2Ru2O17,"['Ba', 'Na', 'V', 'Ru', 'O']",58.0,-390.72311093,0.00024296046064176124,0.0,
2041,Ba12Cu6Na2Te28,mp-569168,Ba6NaCu3Te14,"['Ba', 'Na', 'Cu', 'Te']",48.0,-185.90961526,0.001084352595214888,0.0,
12446,Ba12Nb28O94Si8,mp-560469,Ba6Nb14Si4O47,"['Ba', 'Nb', 'Si', 'O']",142.0,-1203.87954069,3.4236998239123295e-05,0.0,
21585,Ba24Nb16O12S52,mp-583297,Ba6Nb4S13O3,"['Ba', 'Nb', 'S', 'O']",104.0,-668.11270463,8.12667968741465e-06,0.0,
6661,Al8Ba12Nd4O30,mp-1214526,Ba6Nd2Al4O15,"['Ba', 'Nd', 'Al', 'O']",54.0,-381.34837994,0.0011352573683449663,0.0,
4018,Ba12Fe8Nd4O30,mp-1228695,Ba6Nd2Fe4O15,"['Ba', 'Nd', 'Fe', 'O']",54.0,-364.45260159,0.0015992381336804584,0.0,
5779,Ba12Ga8Nd4O30,mp-1214555,Ba6Nd2Ga4O15,"['Ba', 'Nd', 'Ga', 'O']",54.0,-353.11239632,0.0032577612905093645,0.0,
19971,Ba6Mo3Nd2O18Y1,mp-1228132,Ba6Nd2Y(MoO6)3,"['Ba', 'Nd', 'Y', 'Mo', 'O']",30.0,-217.45492079,0.006572122755209797,0.0,
1731,Ba6N6O1Os2,mp-1104257,Ba6Os2N6O,"['Ba', 'Os', 'N', 'O']",15.0,-100.22390694,0.005317511779947104,0.0,
178,Ba12Fe8O30Pr4,mp-1228608,Ba6Pr2Fe4O15,"['Ba', 'Pr', 'Fe', 'O']",54.0,-364.20229114,0.001990978057002657,0.0,
11399,Ba12Ga8O30Pr4,mp-1214591,Ba6Pr2Ga4O15,"['Ba', 'Pr', 'Ga', 'O']",54.0,-352.55599729,0.003022144911772884,0.0,
27113,Ba12I38Pr6,mp-570423,Ba6Pr3I19,"['Ba', 'Pr', 'I']",56.0,-202.08435613,0.008745272408712257,0.0,
3697,Ba6N6O1Re2,mp-1104571,Ba6Re2N6O,"['Ba', 'Re', 'N', 'O']",15.0,-104.99284199,0.002460123029948136,0.0,
28180,Ba6Cl2O12Ru3,mp-558595,Ba6Ru3(ClO6)2,"['Ba', 'Ru', 'Cl', 'O']",23.0,-150.41801011,0.0,-2.6645352591003757e-15,
22069,Ba24Si100,mp-16094,Ba6Si25,"['Ba', 'Si']",124.0,-611.63910554,0.0,0.0,
10319,Al8Ba12O30Sm4,mp-1214532,Ba6Sm2Al4O15,"['Ba', 'Sm', 'Al', 'O']",54.0,-382.2511555,0.0,0.0,
17137,Ba12Ga8O30Sm4,mp-1214554,Ba6Sm2Ga4O15,"['Ba', 'Sm', 'Ga', 'O']",54.0,-353.98799502,0.0,0.0,
3070,Ba24Se52Sn24,mp-1196224,Ba6Sn6Se13,"['Ba', 'Sn', 'Se']",100.0,-446.31836707,9.703242499981002e-05,0.0,
6303,Ba12S40Sn14,mp-1204773,Ba6Sn7S20,"['Ba', 'Sn', 'S']",66.0,-313.47434434,8.439713304930763e-05,0.0,
26132,Ba6O42Ta9Ti7,mp-773060,Ba6Ta9Ti7O42,"['Ba', 'Ta', 'Ti', 'O']",64.0,-575.3519402,0.0022867130564705462,0.0,
1826,Al8Ba12O30Tb4,mp-1214513,Ba6Tb2Al4O15,"['Ba', 'Tb', 'Al', 'O']",54.0,-383.44820191,0.0005554424218745524,0.0,
21102,Ba12Ga8O30Tb4,mp-1214551,Ba6Tb2Ga4O15,"['Ba', 'Tb', 'Ga', 'O']",54.0,-355.20802086,0.0009065373510086516,0.0,
2536,Ba24Br8O100Te40,mp-1197646,Ba6Te10Br2O25,"['Ba', 'Te', 'Br', 'O']",172.0,-969.42389355,0.0,0.0,
31479,Ba6Nb10O51Si8Ti2,mp-677246,Ba6Ti2Nb10Si8O51,"['Ba', 'Ti', 'Nb', 'Si', 'O']",77.0,-641.3258909,0.00023969813311630617,7.105427357601002e-15,
15143,Ba6O18Pt1Ti5,mp-1228124,Ba6Ti5PtO18,"['Ba', 'Ti', 'Pt', 'O']",30.0,-230.80356556,0.00031044080598974233,0.0,
14323,Ba12O2S30Ti10,mp-555781,Ba6Ti5S15O,"['Ba', 'Ti', 'S', 'O']",54.0,-333.1235951,0.0004734088831019889,2.6645352591003757e-15,
16656,Al8Ba12O30Tm4,mp-1214515,Ba6Tm2Al4O15,"['Ba', 'Tm', 'Al', 'O']",54.0,-383.98903914,0.0012306978920717526,0.0,
17579,Ba12Ga8O30Tm4,mp-1214558,Ba6Tm2Ga4O15,"['Ba', 'Tm', 'Ga', 'O']",54.0,-355.78403813,0.0002317971441216926,0.0,
20526,Ba12O36Re6Y2,mp-1228593,Ba6Y(ReO6)3,"['Ba', 'Y', 'Re', 'O']",56.0,-425.63808369,0.0012049525920758697,0.0,
17276,Al8Ba12O30Y4,mp-1214519,Ba6Y2Al4O15,"['Ba', 'Y', 'Al', 'O']",54.0,-390.69499342,0.00018874309027783198,0.0,
12200,Ba12Co8O30Y4,mp-1196872,Ba6Y2Co4O15,"['Ba', 'Y', 'Co', 'O']",54.0,-360.46224506,0.0006011973480912758,-1.3322676295501878e-14,
14596,Ba12Fe8O30Y4,mp-1198058,Ba6Y2Fe4O15,"['Ba', 'Y', 'Fe', 'O']",54.0,-374.26879009,0.0,0.0,
25348,Ba12Ga8O30Y4,mp-1214542,Ba6Y2Ga4O15,"['Ba', 'Y', 'Ga', 'O']",54.0,-362.39262192,0.0011670627879301065,0.0,
26521,Ba6O18Pt1Ru3Y2,mp-1228458,Ba6Y2Ru3PtO18,"['Ba', 'Y', 'Ru', 'Pt', 'O']",30.0,-212.37708293,0.0,0.0,
10197,Ba12O34Ti8Y4,mp-16663,Ba6Y2Ti4O17,"['Ba', 'Y', 'Ti', 'O']",58.0,-461.82549981,2.1458203125490627e-06,0.0,
26997,B12Ba7Ir12,mp-27261,Ba7(BIr)12,"['Ba', 'B', 'Ir']",31.0,-214.80110054,2.4647871699201573e-05,0.0,
11624,Al10Ba7,mp-570400,Ba7Al10,"['Ba', 'Al']",17.0,-54.81137931,0.004830255431985453,0.0,
15950,Al8Ba14Sb18,mp-1195461,Ba7Al4Sb9,"['Ba', 'Al', 'Sb']",40.0,-162.37483832,-8.881784197001252e-16,0.0,
29830,Al64Ba7O103,mp-667379,Ba7Al64O103,"['Ba', 'Al', 'O']",174.0,-1291.96128113,0.0003466186404450511,0.0,
22981,B8Ba14S26,mp-562764,Ba7B4S13,"['Ba', 'B', 'S']",48.0,-259.21292448,0.00013414169270831167,0.0,
61,B8Ba14Se26,mp-583221,Ba7B4Se13,"['Ba', 'B', 'Se']",48.0,-232.92629971,0.003942067179367292,0.0,
2314,Ba7Ca2Mn3O20V2,mp-560912,Ba7Ca2Mn3V2O20,"['Ba', 'Ca', 'Mn', 'V', 'O']",34.0,-236.12770749,0.0008425445266544429,0.0,
17309,Ba7Ca2Mn5O20,mp-556409,Ba7Ca2Mn5O20,"['Ba', 'Ca', 'Mn', 'O']",34.0,-228.66246186,0.00012566938648195247,0.0,
27900,Ba7Cd31,mp-1228287,Ba7Cd31,"['Ba', 'Cd']",38.0,-51.02130933,0.012867012726280214,0.0,
21008,Ba14Cu6H34,mp-707874,Ba7Cu3H17,"['Ba', 'Cu', 'H']",54.0,-188.23046437,0.0014694188570598676,0.0,
21495,As18Ba14Ga8,mp-1195273,Ba7Ga4As9,"['Ba', 'Ga', 'As']",40.0,-170.72127961,0.0,0.0,
21135,Ba7F34Fe6Mn1,mp-22484,Ba7MnFe6F34,"['Ba', 'Mn', 'Fe', 'F']",48.0,-269.44430712,6.693707682359218e-06,0.0,
15564,Al4Ba14O38Sc12,mp-559325,Ba7Sc6Al2O19,"['Ba', 'Sc', 'Al', 'O']",68.0,-519.26270803,1.8738120104444533e-06,0.0,
13081,Ba14Mo8N32Sr10,mp-1228681,Ba7Sr5(MoN4)4,"['Ba', 'Sr', 'Mo', 'N']",64.0,-454.59182104,0.0,0.0,
23646,Ba16Bi12O42,mp-867542,Ba8(Bi2O7)3,"['Ba', 'Bi', 'O']",70.0,-415.65643374,0.007810802877243894,0.0,
870,Al10B12Ba8O41,mp-1019529,Ba8Al10B12O41,"['Ba', 'Al', 'B', 'O']",71.0,-538.26493058,0.0,0.0,
25068,B20Ba32F4N40,mp-561502,Ba8B5N10F,"['Ba', 'B', 'N', 'F']",96.0,-651.41602369,0.0,0.0,
9401,Ba8Ce3O24Sb4,mp-561045,Ba8Ce3(SbO6)4,"['Ba', 'Ce', 'Sb', 'O']",39.0,-268.63335713,0.0,0.0,
6870,Ba8Dy3O18Pt4,mp-1214436,Ba8Dy3(Pt2O9)2,"['Ba', 'Dy', 'Pt', 'O']",33.0,-217.78241542,0.00014909549360719865,0.0,
6953,B6Ba8Eu1N12,mp-1228663,Ba8Eu(BN2)6,"['Ba', 'Eu', 'B', 'N']",27.0,-193.3303804,0.00837246017337101,0.0,
31602,Ba8Cl34Eu7,mp-1198571,Ba8Eu7Cl34,"['Ba', 'Eu', 'Cl']",49.0,-265.54677147,0.06768588597580738,0.0,
31753,Ba32Ga28,mp-30429,Ba8Ga7,"['Ba', 'Ga']",60.0,-168.46229939,0.0038342150820311893,0.0,
9338,Ba8Ge43Pd3,mp-1228873,Ba8Ge43Pd3,"['Ba', 'Ge', 'Pd']",54.0,-244.76226376,0.0,0.0,
16812,Ba8Ho3O18Pt4,mp-1214459,Ba8Ho3(Pt2O9)2,"['Ba', 'Ho', 'Pt', 'O']",33.0,-217.98950996,0.0001185095868843078,0.0,
31426,Ba8Lu3O18Pt4,mp-1214446,Ba8Lu3(Pt2O9)2,"['Ba', 'Lu', 'Pt', 'O']",33.0,-218.77425322,1.6814711161217133e-05,0.0,
9506,Ba8Mn8O21,mp-694888,Ba8Mn8O21,"['Ba', 'Mn', 'O']",37.0,-257.0199315,0.0009483185705239094,0.0,
12681,Ba16Nb14S48,mp-531036,Ba8Nb7S24,"['Ba', 'Nb', 'S']",78.0,-481.98938282,0.019253555816523438,0.0,
29325,Ba8Br1P5,mp-34034,Ba8P5Br,"['Ba', 'P', 'Br']",14.0,-60.33570473,6.188617675739749e-05,0.0,
2468,Ba8H2O1Sb4,mp-1104424,Ba8Sb4H2O,"['Ba', 'Sb', 'H', 'O']",15.0,-60.90850352,0.0037585401542967745,0.0,
11950,Ba32S68Sb24,mp-561455,Ba8Sb6S17,"['Ba', 'Sb', 'S']",124.0,-597.12134584,0.0011510707522726094,0.0,
27545,Ba8O18Pt4Sc3,mp-1214448,Ba8Sc3(Pt2O9)2,"['Ba', 'Sc', 'Pt', 'O']",33.0,-223.30146256,5.1405319601904864e-05,0.0,
23835,Ba8Ni3Si43,mp-1228480,Ba8Si43Ni3,"['Ba', 'Si', 'Ni']",54.0,-277.65881553,0.0034512740031820144,0.0,
23938,Ba32Si24Sn4,mp-1200444,Ba8Si6Sn,"['Ba', 'Si', 'Sn']",60.0,-235.0179549,0.0001353728417967659,0.0,
583,Ba64S120Sn32,mp-1195594,Ba8Sn4S15,"['Ba', 'Sn', 'S']",216.0,-1061.38392798,0.0,0.0,
10520,Ba16Pd2Se32U4,mp-1195367,Ba8U2PdSe16,"['Ba', 'U', 'Pd', 'Se']",54.0,-281.77464588,0.0007022048408567017,0.0,
19563,Ba8O24Sb4Zr3,mp-667372,Ba8Zr3(SbO6)4,"['Ba', 'Zr', 'Sb', 'O']",39.0,-276.38953451,9.542547476026897e-05,0.0,
17821,Ba8Nb19O36Zr1,mp-1228755,Ba8ZrNb19O36,"['Ba', 'Zr', 'Nb', 'O']",64.0,-555.48059833,0.0006673162636001706,0.0,
12152,Au8Ba36O48,mp-28788,Ba9(AuO6)2,"['Ba', 'Au', 'O']",92.0,-526.45504837,8.427831187596269e-06,5.329070518200751e-15,
29066,Ba18O48Rh16,mp-554262,Ba9(RhO3)8,"['Ba', 'Rh', 'O']",82.0,-529.71499024,1.6238260289291873e-05,2.6645352591003757e-15,
18354,Ba9Ca3Fe8La4O30,mp-1228537,Ba9Ca3La4(Fe4O15)2,"['Ba', 'Ca', 'La', 'Fe', 'O']",54.0,-368.95193365,0.0,0.0,
23051,Ba9In4,mp-1105101,Ba9In4,"['Ba', 'In']",13.0,-31.96556016,-8.881784197001252e-16,0.0,
22227,Ba9H1In4,mp-1104568,Ba9In4H,"['Ba', 'In', 'H']",14.0,-36.17377937,0.0,0.0,
25378,Ba9Nb10O30,mp-33581,Ba9Nb10O30,"['Ba', 'Nb', 'O']",49.0,-402.54770314,0.0,0.0,
14207,Ba18O54Rh16,mp-772389,Ba9Rh8O27,"['Ba', 'Rh', 'O']",88.0,-558.33122868,0.013398269172538058,0.0,
7296,Ba9Cl34Sm6,mp-567646,Ba9Sm6Cl34,"['Ba', 'Sm', 'Cl']",49.0,-224.91242774,0.01571049192199947,-8.881784197001252e-15,
9403,Ag20Ba18S48U8,mp-1195654,Ba9U4(Ag5S12)2,"['Ba', 'U', 'Ag', 'S']",94.0,-500.74003537,0.0,0.0,
21009,Ag4Ba4,mp-11840,BaAg,"['Ba', 'Ag']",8.0,-21.25561707,0.012989639267247721,0.0,
4962,Ag4Ba4O36P12,mp-10070,BaAg(PO3)3,"['Ba', 'Ag', 'P', 'O']",56.0,-384.43384249,2.5757174171303632e-14,2.5757174171303632e-14,
7926,Ag2Ba1,mp-1241,BaAg2,"['Ba', 'Ag']",3.0,-8.46942884,0.0029405545133434075,0.0,
26135,Ag2Ba1S4Sn1,mp-555166,BaAg2SnS4,"['Ba', 'Ag', 'Sn', 'S']",8.0,-34.23305449,0.0023653200976561095,0.0,
793,Ag2Ba1Se4Sn1,mp-569114,BaAg2SnSe4,"['Ba', 'Ag', 'Sn', 'Se']",8.0,-31.44675765,0.0012799695007288392,0.0,
7825,Ag5Ba1,mp-1814,BaAg5,"['Ba', 'Ag']",6.0,-17.06368015,0.004410826847330629,0.0,
28614,Ag2As2Ba2,mp-7359,BaAgAs,"['Ba', 'Ag', 'As']",6.0,-23.56524511,0.0006894339778646952,-1.7763568394002505e-15,
24883,Ag2Ba2Bi2,mp-1205318,BaAgBi,"['Ba', 'Ag', 'Bi']",6.0,-21.23224146,0.00016612670247395656,0.0,
27685,Ag1Ba1O2,mp-996990,BaAgO2,"['Ba', 'Ag', 'O']",4.0,-20.28630653,0.003759484290771553,0.0,
17462,Ag2Ba2P2,mp-9899,BaAgP,"['Ba', 'Ag', 'P']",6.0,-24.69005914,0.0005303298974617121,0.0,
31433,Ag2Ba2F2S2,mp-1086652,BaAgSF,"['Ba', 'Ag', 'S', 'F']",8.0,-37.6968127,7.715776976624511e-05,0.0,
16405,Ag2Ba2Sb2,mp-1205316,BaAgSb,"['Ba', 'Ag', 'Sb']",6.0,-22.46812514,0.0001567251204424025,1.7763568394002505e-15,
26524,Ag4Ba4S12Sb4,mp-1190401,BaAgSbS3,"['Ba', 'Ag', 'Sb', 'S']",24.0,-106.009876,0.00019643813069603056,0.0,
1851,Ag2Ba2F2Se2,mp-1079647,BaAgSeF,"['Ba', 'Ag', 'Se', 'F']",8.0,-36.5798624,8.943510742120964e-05,0.0,
15454,Ag2Ba2F2Te2,mp-16742,BaAgTeF,"['Ba', 'Ag', 'Te', 'F']",8.0,-35.3371524,1.1887194824033998e-05,0.0,
6075,Al8Ba4Ge8O32,mp-556178,BaAl2(GeO4)2,"['Ba', 'Al', 'Ge', 'O']",52.0,-361.81284605,1.3322676295501878e-14,0.0,
25717,Al8Ba4O32Si8,mp-6091,BaAl2(SiO4)2,"['Ba', 'Al', 'Si', 'O']",52.0,-397.0174318,0.0,0.0,
28453,Al2B2Ba1O7,mp-9844,BaAl2B2O7,"['Ba', 'Al', 'B', 'O']",12.0,-91.62299193,0.0,0.0,
3998,Al16Ba8O32,mp-4202,BaAl2O4,"['Ba', 'Al', 'O']",56.0,-404.72821718,1.3322676295501878e-14,0.0,
26404,Al2Ba1O7Sb2,mp-12885,BaAl2Sb2O7,"['Ba', 'Al', 'Sb', 'O']",12.0,-80.72142204,2.2394645196044394e-06,0.0,
23780,Al4Ba2N8O8Si6,mp-1019531,BaAl2Si3(NO)4,"['Ba', 'Al', 'Si', 'N', 'O']",28.0,-215.98721442,3.864708427059327e-06,0.0,
20480,Al4Ba1,mp-1903,BaAl4,"['Ba', 'Al']",5.0,-18.10718596,1.0251630864210881e-06,0.0,
31238,Al8Ba2O24Sb4,mp-1196877,BaAl4(SbO6)2,"['Ba', 'Al', 'Sb', 'O']",38.0,-264.11641617,0.00033046597245078857,0.0,
5803,Al8Ba2S14,mp-8258,BaAl4S7,"['Ba', 'Al', 'S']",24.0,-122.89344267,0.011988637190213147,-9.769962616701378e-15,
11860,Al9Ba1Fe2,mp-16483,BaAl9Fe2,"['Ba', 'Al', 'Fe']",12.0,-56.36957151,0.0005032367968746954,-1.687538997430238e-14,
30725,Al4B16Ba4H12O40,mp-1195235,BaAlB4H3O10,"['Ba', 'Al', 'B', 'H', 'O']",76.0,-543.95484238,0.0021078335895596823,0.0,
20030,Al2B2Ba2F4O6,mp-558491,BaAlBO3F2,"['Ba', 'Al', 'B', 'O', 'F']",16.0,-112.74064397,0.0,0.0,
11652,Al4Ba4F20,mp-4376,BaAlF5,"['Ba', 'Al', 'F']",28.0,-164.92898157,1.0694137829503347e-05,-5.329070518200751e-15,
20226,Al4Ba4H20,mp-644097,BaAlH5,"['Ba', 'Al', 'H']",28.0,-99.60109597,0.0005003762981274917,0.0,
16815,Al1Ba1Si1,mp-13149,BaAlSi,"['Ba', 'Al', 'Si']",3.0,-12.253411,0.00030651196289088745,0.0,
21454,Al1Ba1N7O2Si5,mp-1227994,BaAlSi5N7O2,"['Ba', 'Al', 'Si', 'N', 'O']",16.0,-126.02638246,0.0005999213232428247,0.0,
28638,Al1Ba1H1Si1,mp-571093,BaAlSiH,"['Ba', 'Al', 'Si', 'H']",4.0,-16.21635574,0.00017460717529260705,0.0,
21312,As12Ba6,mp-31243,BaAs2,"['Ba', 'As']",18.0,-81.58123355,0.005171944271050499,0.0,
18929,As8Ba4F48,mp-1214710,BaAs2F12,"['Ba', 'As', 'F']",60.0,-282.10590729,0.01665761918196651,0.0,
7265,As4Ba2Pd2,mp-9767,BaAs2Pd,"['Ba', 'As', 'Pd']",8.0,-39.43034062,0.0004986708215328761,0.0,
28025,As4Ba2Pt2,mp-9769,BaAs2Pt,"['Ba', 'As', 'Pt']",8.0,-41.41690106,0.0002583925854491298,0.0,
15309,As6Ba2,mp-15325,BaAs3,"['Ba', 'As']",8.0,-36.81421783,0.0,0.0,
18665,As2Au2Ba2,mp-1077361,BaAsAu,"['Ba', 'As', 'Au']",6.0,-25.28911923,0.0007255100065108877,-8.881784197001252e-16,
20476,As16Ba16H16O64,mp-23810,BaAsHO4,"['Ba', 'As', 'H', 'O']",112.0,-685.08641699,8.409792132901828e-06,0.0,
20589,As1Ba1Pd1,mp-9744,BaAsPd,"['Ba', 'As', 'Pd']",3.0,-14.5493814,0.0071477410359701565,-1.7763568394002505e-15,
27186,As4Ba4Pt4,mp-8458,BaAsPt,"['Ba', 'As', 'Pt']",12.0,-62.54059751,0.0,0.0,
5706,Au4Ba4,mp-570775,BaAu,"['Ba', 'Au']",8.0,-26.55308678,0.0,0.0,
26942,Au2Ba1,mp-30363,BaAu2,"['Ba', 'Au']",3.0,-10.68809119,0.0003071124886036003,0.0,
9039,Au2Ba1O16S4,mp-1190864,BaAu2(SO4)4,"['Ba', 'Au', 'S', 'O']",23.0,-133.3386427,0.004105941117543921,1.687538997430238e-14,
301,Au5Ba1,mp-30364,BaAu5,"['Ba', 'Au']",6.0,-20.94640931,2.5397357533485376e-05,0.0,
14961,B2Ba1F8,mp-558430,BaB2F8,"['Ba', 'B', 'F']",11.0,-65.8613603,1.086894530999416e-05,-2.6645352591003757e-15,
11798,B8Ba4O52S12,mp-1019539,BaB2S3O13,"['Ba', 'B', 'S', 'O']",76.0,-508.30356402,0.00016494839021419239,0.0,
19760,B8Ba2O24Sb4,mp-1195214,BaB4(SbO6)2,"['Ba', 'B', 'Sb', 'O']",38.0,-275.27272648,0.0002831024999725429,0.0,
18903,B32Ba8O56,mp-27692,BaB4O7,"['Ba', 'B', 'O']",96.0,-757.88867637,1.0670686556579767e-06,-3.019806626980426e-14,
22590,B6Ba1,mp-954,BaB6,"['Ba', 'B']",7.0,-44.86513212,0.0,0.0,
3010,B32Ba4H16O60,mp-1202880,BaB8H4O15,"['Ba', 'B', 'H', 'O']",112.0,-823.63582413,0.0007842894712615234,0.0,
9572,B32Ba4O52,mp-27794,BaB8O13,"['Ba', 'B', 'O']",88.0,-702.08684683,3.057690518382117e-05,0.0,
14259,As4B4Ba4F40,mp-1198994,BaBAsF10,"['Ba', 'B', 'As', 'F']",52.0,-276.13127127,6.271539813695881e-05,0.0,
1089,As3B3Ba3O15,mp-9784,BaBAsO5,"['Ba', 'B', 'As', 'O']",24.0,-166.73972714,0.00017278172363166533,0.0,
4442,B2Ba2Cl2F8,mp-1103527,BaBClF4,"['Ba', 'B', 'Cl', 'F']",14.0,-79.30686276,7.049360072475253e-05,0.0,
3694,B3Ba3F30P3,mp-1199844,BaBPF10,"['Ba', 'B', 'P', 'F']",39.0,-217.56010116,3.3745546875074695e-05,0.0,
17981,B3Ba3O15P3,mp-6040,BaBPO5,"['Ba', 'B', 'P', 'O']",24.0,-180.76074626,5.882965495196402e-06,0.0,
28173,B4Ba4Pd16,mp-1191182,BaBPd4,"['Ba', 'B', 'Pd']",24.0,-128.90239335,0.0004893934977214798,0.0,
13762,B4Ba4S16Sb4,mp-866301,BaBSbS4,"['Ba', 'B', 'Sb', 'S']",28.0,-142.96416985,0.0011070451520645008,0.0,
7065,B4Ba2Be4O12,mp-555070,BaBe2(BO3)2,"['Ba', 'Be', 'B', 'O']",22.0,-165.29703404,2.8986951347675927e-05,0.0,
4443,Ba1Be2O8P2,mp-1227988,BaBe2(PO4)2,"['Ba', 'Be', 'P', 'O']",13.0,-95.00619134,0.0003220641406249669,0.0,
19977,Ba2Be4O14Si4,mp-12797,BaBe2Si2O7,"['Ba', 'Be', 'Si', 'O']",24.0,-179.51014953,0.0,0.0,
15276,Ba4Be4F16,mp-12431,BaBeF4,"['Ba', 'Be', 'F']",24.0,-140.16254114,0.0,0.0,
11668,Ba2Be2F2O8P2,mp-754604,BaBePO4F,"['Ba', 'Be', 'P', 'O', 'F']",16.0,-112.33485126,0.00010496885742217188,0.0,
23001,Ba1Be1O4Si1,mp-550751,BaBeSiO4,"['Ba', 'Be', 'Si', 'O']",7.0,-51.39985496,2.7533531010703882e-14,2.7533531010703882e-14,
11709,B16Ba4Bi8O40,mp-560550,BaBi2(B2O5)2,"['Ba', 'Bi', 'B', 'O']",68.0,-494.99733593,9.270273437778087e-06,0.0,
9304,Ba2Bi4Mo8O32,mp-642792,BaBi2(MoO4)4,"['Ba', 'Bi', 'Mo', 'O']",46.0,-313.29767682,0.001360636810517235,0.0,
31422,Ba1Bi6O20P4,mp-554084,BaBi6(PO5)4,"['Ba', 'Bi', 'P', 'O']",31.0,-206.22377026,1.100219755478804e-05,2.4868995751603507e-14,
25728,B4Ba4Bi4O16,mp-559186,BaBiBO4,"['Ba', 'Bi', 'B', 'O']",28.0,-191.23971006,0.0012038909409826104,-1.2434497875801753e-14,
9841,Ba2Bi2Br2O4,mp-1206552,BaBiBrO2,"['Ba', 'Bi', 'Br', 'O']",10.0,-54.12782491,0.0004196025058593733,0.0,
14882,Ba2Bi2Cl2O4,mp-552806,BaBiClO2,"['Ba', 'Bi', 'Cl', 'O']",10.0,-55.22108493,7.388347656345218e-06,0.0,
26093,Ba4Bi4F28,mp-1041349,BaBiF7,"['Ba', 'Bi', 'F']",36.0,-165.91012682,0.07935004031901105,0.0,
18733,Ba2Bi2I2O4,mp-551243,BaBiIO2,"['Ba', 'Bi', 'I', 'O']",10.0,-52.79311883,3.0266894501806973e-07,0.0,
13853,Ba2Bi2N2O10,mp-1228172,BaBiNO5,"['Ba', 'Bi', 'N', 'O']",16.0,-99.91765776,0.004646836319579961,0.0,
12248,Ba4Bi4O12,mp-559051,BaBiO3,"['Ba', 'Bi', 'O']",20.0,-119.03610928,0.0003599229628905576,0.0,
15529,Ba8Bi8Se24,mp-27365,BaBiSe3,"['Ba', 'Bi', 'Se']",40.0,-171.73393707,0.001242405769531274,0.0,
6210,Ba4Br8,mp-27456,BaBr2,"['Ba', 'Br']",12.0,-47.46807528,0.017794515546061263,0.0,
27945,Ba4Br4Cl4,mp-1012551,BaBrCl,"['Ba', 'Br', 'Cl']",12.0,-50.49625462,1.544345052018059e-05,0.0,
27811,Ba2Br2F2,mp-23070,BaBrF,"['Ba', 'Br', 'F']",6.0,-29.48540766,0.00021581419433580606,-4.440892098500626e-15,
12567,Ba6C12N12O12,mp-1195678,BaC2(NO)2,"['Ba', 'C', 'N', 'O']",42.0,-333.94641845,0.00033307192150111575,0.0,
17779,Ba2C12,mp-1214417,BaC6,"['Ba', 'C']",14.0,-115.7544283,4.445422711896185e-05,0.0,
3058,Ba1C1N2,mp-1029375,BaCN2,"['Ba', 'C', 'N']",4.0,-30.99922418,0.0027579389172363022,0.0,
1540,Ba4C4O12,mp-5504,BaCO3,"['Ba', 'C', 'O']",20.0,-149.38694762,2.5342388672022764e-05,0.0,
794,Ba1Ca1Ga4O8,mp-561446,BaCa(GaO2)4,"['Ba', 'Ca', 'Ga', 'O']",14.0,-87.00557191,9.970889090471502e-05,0.0,
22088,Ba4Ca4O48P16,mp-556122,BaCa(PO3)4,"['Ba', 'Ca', 'P', 'O']",72.0,-522.31170237,3.9235746527310766e-05,0.0,
6524,Ba4Ca8N48P24,mp-6404,BaCa2(PN2)6,"['Ba', 'Ca', 'P', 'N']",84.0,-625.40128105,0.002873103509422492,0.0,
23067,Ba8Ca16N32W8,mp-1214597,BaCa2WN4,"['Ba', 'Ca', 'W', 'N']",64.0,-483.91268867,0.0015640648181145522,0.0,
3562,Ba4Ca16Co8N16,mp-606338,BaCa4(CoN2)2,"['Ba', 'Ca', 'Co', 'N']",44.0,-258.59300442,7.592160688840721e-05,-8.881784197001252e-16,
18644,Ba4Ca16Cu8N16,mp-569603,BaCa4(CuN2)2,"['Ba', 'Ca', 'Cu', 'N']",44.0,-233.45983261,0.0,0.0,
27115,Al4Ba4Ca4F28,mp-18065,BaCaAlF7,"['Ba', 'Ca', 'Al', 'F']",40.0,-235.38673116,6.694438867071995e-05,0.0,
25678,B16Ba8Ca8O40,mp-1019542,BaCaB2O5,"['Ba', 'Ca', 'B', 'O']",72.0,-539.60772778,3.0236182724685534e-05,0.0,
7453,Ba4Ca4Cr4F28,mp-560577,BaCaCrF7,"['Ba', 'Ca', 'Cr', 'F']",40.0,-237.79856229,9.10559179612136e-06,0.0,