,Composition,MaterialId,Reduced Formula,Elements,NSites,Corrected Energy,Decomposition Energy Per Atom All,Decomposition Energy Per Atom MP,Directory
2004,Cs2N2Tb6Te7,mp-646007,Cs2Tb6Te7N2,"['Cs', 'Tb', 'Te', 'N']",17.0,-93.27295759,0.015770062059972112,0.0,
20984,Ag1Cl6Cs2Tb1,mp-1112937,Cs2TbAgCl6,"['Cs', 'Tb', 'Ag', 'Cl']",10.0,-38.83288944,5.544525390810406e-06,0.0,
13429,Cl6Cs2Tc1,mp-1205840,Cs2TcCl6,"['Cs', 'Tc', 'Cl']",9.0,-35.72699399,-1.7763568394002505e-15,-1.7763568394002505e-15,
24779,Cs2F6Tc1,mp-1079364,Cs2TcF6,"['Cs', 'Tc', 'F']",9.0,-46.56728293,-1.9539925233402755e-14,-2.6645352591003757e-15,
22841,Cs2I6Tc1,mp-1206848,Cs2TcI6,"['Cs', 'Tc', 'I']",9.0,-28.41392364,8.559558268528278e-05,-1.3322676295501878e-15,
18230,Cs8Te4,mp-573763,Cs2Te,"['Cs', 'Te']",12.0,-31.63561102,0.01717609175781254,0.0,
11147,Cs4Mo18Te20,mp-581150,Cs2Te10Mo9,"['Cs', 'Te', 'Mo']",42.0,-279.96420472,0.0,0.0,
29222,Cs16O40Te16,mp-504924,Cs2Te2O5,"['Cs', 'Te', 'O']",72.0,-360.80952015,0.0009966265606884406,0.0,
4471,Cs4Te6,mp-505634,Cs2Te3,"['Cs', 'Te']",10.0,-29.86837185,0.0002383887304691079,0.0,
2433,As4Cs8Te12,mp-574138,Cs2Te3As,"['Cs', 'Te', 'As']",24.0,-78.39653482,0.0,0.0,
5159,Cs8O36Te16,mp-1203081,Cs2Te4O9,"['Cs', 'Te', 'O']",60.0,-311.48957563,0.0003002979309894016,-5.329070518200751e-15,
20998,Br6Cs2Te1,mp-23405,Cs2TeBr6,"['Cs', 'Te', 'Br']",9.0,-24.66735995,0.00032603677842590884,-1.3322676295501878e-15,
5082,Cl6Cs2Te1,mp-23465,Cs2TeCl6,"['Cs', 'Te', 'Cl']",9.0,-27.83197045,-3.1086244689504383e-15,-1.7763568394002505e-15,
13976,Cs8H24O40Se4Te4,mp-1215093,Cs2TeH6SeO10,"['Cs', 'Te', 'H', 'Se', 'O']",80.0,-405.70451309,0.0005874157207035324,0.0,
29894,Cs2I6Te1,mp-540957,Cs2TeI6,"['Cs', 'Te', 'I']",9.0,-21.46289006,3.695683430793295e-05,-1.3322676295501878e-15,
26933,Cs4O6Te2,mp-614803,Cs2TeO3,"['Cs', 'Te', 'O']",12.0,-57.40816438,0.0037846847436515674,0.0,
18738,Cs8O16Te4,mp-669353,Cs2TeO4,"['Cs', 'Te', 'O']",28.0,-138.3265882,0.0010005426269534823,0.0,
13211,Cs4F8O2Te2,mp-561647,Cs2TeOF4,"['Cs', 'Te', 'O', 'F']",16.0,-71.84582183,0.0002300267687989077,0.0,
27049,As4Cs4O16Th2,mp-1192509,Cs2Th(AsO4)2,"['Cs', 'Th', 'As', 'O']",26.0,-170.74978232,0.00012063474008350283,0.0,
25358,Cs8P12S36Th4,mp-640389,Cs2Th(PS3)3,"['Cs', 'Th', 'P', 'S']",60.0,-306.32747262,0.0011263189635410953,0.0,
23108,Cs4O30Si12Th2,mp-1195679,Cs2Th(Si2O5)3,"['Cs', 'Th', 'Si', 'O']",48.0,-370.19343735,0.0,0.0,
30383,Cs16P16Se104Th16,mp-1204762,Cs2Th2P2Se13,"['Cs', 'Th', 'P', 'Se']",152.0,-720.82566841,0.004358976974712547,0.0,
7847,Cl6Cs2Th1,mp-27501,Cs2ThCl6,"['Cs', 'Th', 'Cl']",9.0,-39.77579504,-1.7763568394002505e-15,-1.7763568394002505e-15,
27597,Ag4Cs4S8Ti2,mp-10488,Cs2Ti(AgS2)2,"['Cs', 'Ti', 'Ag', 'S']",18.0,-81.89592369,0.0,0.0,
28428,Cs4Cu4Se8Ti2,mp-10489,Cs2Ti(CuSe2)2,"['Cs', 'Ti', 'Cu', 'Se']",18.0,-81.04980964,9.726582248248405e-05,0.0,
1433,Cs8O32P8Ti4,mp-14864,Cs2Ti(PO4)2,"['Cs', 'Ti', 'P', 'O']",52.0,-369.13041682,9.266570012655961e-06,0.0,
21003,Cs4O30Si12Ti2,mp-6748,Cs2Ti(Si2O5)3,"['Cs', 'Ti', 'Si', 'O']",48.0,-365.76567037,3.835878906954804e-06,0.0,
3135,Cs2O12Ti1W3,mp-1226157,Cs2Ti(WO4)3,"['Cs', 'Ti', 'W', 'O']",18.0,-131.53153219,0.00023856133029553916,0.0,
22143,Cs6S27Ti6,mp-680170,Cs2Ti2S9,"['Cs', 'Ti', 'S']",39.0,-202.57680969,0.0013246914423072909,0.0,
11016,Cs4O18Ti8,mp-1213715,Cs2Ti4O9,"['Cs', 'Ti', 'O']",30.0,-240.44084754,0.0002199501640625101,0.0,
23568,Cl6Cs2Ti1,mp-27828,Cs2TiCl6,"['Cs', 'Ti', 'Cl']",9.0,-37.29249012,5.339473415855167e-05,0.0,
692,Cs4Cu6F24Ti2,mp-1195388,Cs2TiCu3F12,"['Cs', 'Ti', 'Cu', 'F']",36.0,-175.89885049,0.0,0.0,
18734,Cs2I6Ti1,mp-1206662,Cs2TiI6,"['Cs', 'Ti', 'I']",9.0,-28.97229132,0.0,6.217248937900877e-15,
26632,Cs4O6Ti2,mp-1178403,Cs2TiO3,"['Cs', 'Ti', 'O']",12.0,-77.20040523,0.011340905312500205,-8.881784197001252e-16,
21231,Cs4O26P8Ti2,mp-1203715,Cs2TiP4O13,"['Cs', 'Ti', 'P', 'O']",40.0,-286.51784574,0.00030686553318926,-1.3322676295501878e-14,
9953,Cs4S6Ti2,mp-3247,Cs2TiS3,"['Cs', 'Ti', 'S']",12.0,-60.68298949,0.0048821166780603775,0.0,
27577,Cs8O72P12Ti4V12,mp-581138,Cs2TiV3(PO6)3,"['Cs', 'Ti', 'V', 'P', 'O']",108.0,-789.53686906,2.3517303384679167e-06,0.0,
29644,Ag1Br6Cs2Tl1,mp-1113444,Cs2TlAgBr6,"['Cs', 'Tl', 'Ag', 'Br']",10.0,-27.16477036,0.0,0.0,
8958,Ag1Cl6Cs2Tl1,mp-1113442,Cs2TlAgCl6,"['Cs', 'Tl', 'Ag', 'Cl']",10.0,-30.22520668,0.0,-1.199040866595169e-14,
19592,Ag1Cs2F6Tl1,mp-1113150,Cs2TlAgF6,"['Cs', 'Tl', 'Ag', 'F']",10.0,-39.36149169,0.0,0.0,
19859,Bi1Cs2F6Tl1,mp-557664,Cs2TlBiF6,"['Cs', 'Tl', 'Bi', 'F']",10.0,-43.93531291,0.012315431412109668,0.0,
1431,Br40Cs16Tl8,mp-1199662,Cs2TlBr5,"['Cs', 'Tl', 'Br']",64.0,-175.54028834,0.0001689680456546938,0.0,
16513,Cl20Cs8Tl4,mp-541696,Cs2TlCl5,"['Cs', 'Tl', 'Cl']",32.0,-97.98331382,9.678148864722402e-05,0.0,
28063,Cr1Cs2F6Tl1,mp-1112495,Cs2TlCrF6,"['Cs', 'Tl', 'Cr', 'F']",10.0,-49.46251203,0.0009461297636716992,0.0,
4736,Cs2F6Fe1Tl1,mp-504603,Cs2TlFeF6,"['Cs', 'Tl', 'Fe', 'F']",10.0,-46.35766924,0.0,0.0,
22103,Cs2F6Ga1Tl1,mp-989558,Cs2TlGaF6,"['Cs', 'Tl', 'Ga', 'F']",10.0,-44.44123062,1.1395397478075608e-05,0.0,
21800,Br6Cs2In1Tl1,mp-996944,Cs2TlInBr6,"['Cs', 'Tl', 'In', 'Br']",10.0,-29.33467587,0.005592431738768777,0.0,
18305,Cl6Cs2In1Tl1,mp-1112490,Cs2TlInCl6,"['Cs', 'Tl', 'In', 'Cl']",10.0,-32.84578592,0.0,0.0,
16019,Cs2F6In1Tl1,mp-989537,Cs2TlInF6,"['Cs', 'Tl', 'In', 'F']",10.0,-43.53416486,0.0,0.0,
2054,Cs2F6Mo1Tl1,mp-560710,Cs2TlMoF6,"['Cs', 'Tl', 'Mo', 'F']",10.0,-48.14413902,3.267189452316188e-06,0.0,
27140,Cs2F6Rh1Tl1,mp-1112340,Cs2TlRhF6,"['Cs', 'Tl', 'Rh', 'F']",10.0,-44.4901573,1.832456542949501e-05,0.0,
20988,Cs2F6Tl1V1,mp-557533,Cs2TlVF6,"['Cs', 'Tl', 'V', 'F']",10.0,-49.76819177,9.769962616701378e-15,0.0,
4358,Ag1Cl6Cs2Tm1,mp-1113440,Cs2TmAgCl6,"['Cs', 'Tm', 'Ag', 'Cl']",10.0,-38.7045164,1.3640151367511066e-05,-2.6645352591003757e-15,
14084,Cl20Cs8Tm4,mp-1213743,Cs2TmCl5,"['Cs', 'Tm', 'Cl']",32.0,-132.29729785,0.00014315037841949874,1.7763568394002505e-15,
12503,Br8Cs4O4U2,mp-572551,Cs2U(Br2O)2,"['Cs', 'U', 'Br', 'O']",18.0,-96.69453962,9.742860894146332e-05,0.0,
9863,Cl4Cs2O2U1,mp-541275,Cs2U(Cl2O)2,"['Cs', 'U', 'Cl', 'O']",9.0,-50.84952004,4.530954753079186e-05,-2.6645352591003757e-15,
11327,Cs4Pd6S12U2,mp-1192271,Cs2U(PdS2)3,"['Cs', 'U', 'Pd', 'S']",24.0,-129.84624154,2.4425782877202096e-05,0.0,
6789,Cs4Pd6Se12U2,mp-1191887,Cs2U(PdSe2)3,"['Cs', 'U', 'Pd', 'Se']",24.0,-120.40212892,0.0,0.0,
8622,Cs4Pt6S12U2,mp-1191335,Cs2U(PtS2)3,"['Cs', 'U', 'Pt', 'S']",24.0,-135.37696029,0.0003371139746093377,0.0,
11541,Cs4Pt6Se12U2,mp-1190813,Cs2U(PtSe2)3,"['Cs', 'U', 'Pt', 'Se']",24.0,-125.33174754,-8.881784197001252e-16,0.0,
28752,Cs4O30Si12U2,mp-1197866,Cs2U(Si2O5)3,"['Cs', 'U', 'Si', 'O']",48.0,-373.75060493,0.0013139709814442568,-1.4210854715202004e-14,
28558,Cs16O64Si16U8,mp-581584,Cs2U(SiO4)2,"['Cs', 'U', 'Si', 'O']",104.0,-796.98607365,1.5527178485186255e-05,0.0,
20369,Cs2O7U2,mp-548479,Cs2U2O7,"['Cs', 'U', 'O']",11.0,-90.25027402,6.993772369234819e-05,-3.019806626980426e-14,
18215,Cs2O14Te2U3,mp-562366,Cs2U3(TeO7)2,"['Cs', 'U', 'Te', 'O']",21.0,-161.91018249,0.00048685152715677305,0.0,
29783,Cs2Nb4O23U4,mp-1228671,Cs2U4Nb4O23,"['Cs', 'U', 'Nb', 'O']",33.0,-293.83071787,0.0009958614796410359,0.0,
28412,Cs4Pd8S34U12,mp-1196686,Cs2U6Pd4S17,"['Cs', 'U', 'Pd', 'S']",58.0,-388.59209735,1.2434497875801753e-14,0.0,
13149,As8Cs8O36U4,mp-1196336,Cs2UAs2O9,"['Cs', 'U', 'As', 'O']",56.0,-381.37944493,0.0,0.0,
27969,Br6Cs2U1,mp-540735,Cs2UBr6,"['Cs', 'U', 'Br']",9.0,-37.45785408,0.008434263463541924,-1.7763568394002505e-15,
25213,Cl6Cs2U1,mp-23077,Cs2UCl6,"['Cs', 'U', 'Cl']",9.0,-41.58794648,0.0,-2.6645352591003757e-15,
31772,Cs4Hg4Se10U2,mp-571275,Cs2UHg2Se5,"['Cs', 'U', 'Hg', 'Se']",20.0,-79.58064072,0.008239360242336957,0.0,
22469,Cs24Mo12O84U12,mp-581443,Cs2UMoO7,"['Cs', 'U', 'Mo', 'O']",132.0,-968.07925118,0.0024880429663820536,0.0,
20631,Cs2O4U1,mp-2991,Cs2UO4,"['Cs', 'U', 'O']",7.0,-51.28291942,1.4528309153938324e-05,1.7763568394002505e-15,
30482,Cs8O36P8U4,mp-561356,Cs2UP2O9,"['Cs', 'U', 'P', 'O']",56.0,-417.50403394,5.756915178523059e-05,0.0,
22220,Cs8O32P8V4,mp-541679,Cs2V(PO4)2,"['Cs', 'V', 'P', 'O']",52.0,-355.49742701,7.230303035488106e-05,1.3322676295501878e-14,
3405,Cs4O16V6,mp-1192739,Cs2V3O8,"['Cs', 'V', 'O']",26.0,-179.87631542,0.0004964274684766679,0.0,
24826,Cs4O18V8,mp-28948,Cs2V4O9,"['Cs', 'V', 'O']",30.0,-213.5273966,0.0,0.0,
4549,Cs2O13V5,mp-616573,Cs2V5O13,"['Cs', 'V', 'O']",20.0,-142.33473749,0.003969290050894081,0.0,
396,Ag2Cs4S8V2,mp-8684,Cs2VAgS4,"['Cs', 'V', 'Ag', 'S']",16.0,-76.23044154,3.425525146472097e-05,0.0,
21170,Cl6Cs2V1,mp-1206014,Cs2VCl6,"['Cs', 'V', 'Cl']",9.0,-36.13645908,4.432463433179379e-05,-1.7763568394002505e-15,
4162,Cs4F12V2,mp-27239,Cs2VF6,"['Cs', 'V', 'F']",18.0,-92.71179749,0.0024551016026475025,0.0,
26888,Cs8F16H8O8V4,mp-1226442,Cs2VH2(OF2)2,"['Cs', 'V', 'H', 'O', 'F']",44.0,-232.39761968,0.0005435891243372737,0.0,
31053,Cs4H2O8V2,mp-1096946,Cs2VHO4,"['Cs', 'V', 'H', 'O']",16.0,-92.4542792,0.08158902153856484,0.0,
12713,Cs2F4O2W1,mp-1226138,Cs2W(OF2)2,"['Cs', 'W', 'O', 'F']",9.0,-48.8647615,0.037257012935385525,0.0,
11815,Cs4O24Se2W6,mp-18371,Cs2W3SeO12,"['Cs', 'W', 'Se', 'O']",36.0,-240.06800905,0.00858000984158025,0.0,
7083,Br6Cs2W1,mp-541753,Cs2WBr6,"['Cs', 'W', 'Br']",9.0,-34.56508112,0.0003339974631035858,-1.7763568394002505e-15,
8127,Cl6Cs2W1,mp-30234,Cs2WCl6,"['Cs', 'W', 'Cl']",9.0,-38.49374163,6.361988715131162e-05,-1.7763568394002505e-15,
28245,Cs4O8W2,mp-752508,Cs2WO4,"['Cs', 'W', 'O']",14.0,-86.29017521,0.00020619576311453613,0.0,
1882,Cs8S16W4,mp-17361,Cs2WS4,"['Cs', 'W', 'S']",28.0,-154.07815467,0.0,0.0,
7949,Ag1Cl6Cs2Y1,mp-1112288,Cs2YAgCl6,"['Cs', 'Y', 'Ag', 'Cl']",10.0,-40.65400978,2.9618193364555623e-06,0.0,
3385,Ag1Cs2F6Y1,mp-1110987,Cs2YAgF6,"['Cs', 'Y', 'Ag', 'F']",10.0,-51.95706079,0.007069346616213501,9.769962616701378e-15,
18747,Cl20Cs8Y4,mp-1213783,Cs2YCl5,"['Cs', 'Y', 'Cl']",32.0,-140.10063793,0.00020766859986220965,1.7763568394002505e-15,
11691,Cs16F8O80Si32Y8,mp-581114,Cs2YSi4O10F,"['Cs', 'Y', 'Si', 'O', 'F']",144.0,-1068.70787081,1.4210854715202004e-14,0.0,
22529,Cs2F6Tl1Y1,mp-1112482,Cs2YTlF6,"['Cs', 'Y', 'Tl', 'F']",10.0,-52.97658633,0.004713338893312269,0.0,
5366,Cs4S8Zn6,mp-505633,Cs2Zn3S4,"['Cs', 'Zn', 'S']",18.0,-61.60122418,3.12026464839299e-05,0.0,
8057,Bi8Cs8S20Zn4,mp-1199216,Cs2ZnBi2S5,"['Cs', 'Zn', 'Bi', 'S']",40.0,-157.37850537,-8.881784197001252e-16,-8.881784197001252e-16,
15698,Br16Cs8Zn4,mp-1193173,Cs2ZnBr4,"['Cs', 'Zn', 'Br']",28.0,-79.7755256,0.0001847786376956151,0.0,
18548,Cl16Cs8Zn4,mp-540578,Cs2ZnCl4,"['Cs', 'Zn', 'Cl']",28.0,-89.20582602,0.0009579369426617745,0.0,
15721,Cs4H24O28S4Zn2,mp-779814,Cs2ZnH12(SO7)2,"['Cs', 'Zn', 'H', 'S', 'O']",62.0,-324.4283346,0.0008166325857050794,-2.6645352591003757e-15,
15771,Cs4H24O28Se4Zn2,mp-779742,Cs2ZnH12(SeO7)2,"['Cs', 'Zn', 'H', 'Se', 'O']",62.0,-309.33431267,0.000720113657977528,0.0,
940,Cs8H16Zn4,mp-1181768,Cs2ZnH4,"['Cs', 'Zn', 'H']",28.0,-72.91097951,0.00015609895577517463,0.0,
12435,Cs24I48Zn12,mp-1204449,Cs2ZnI4,"['Cs', 'Zn', 'I']",84.0,-209.12082802,0.007334573451683202,0.0,
20715,Cs16O16Zn8,mp-504601,Cs2ZnO2,"['Cs', 'Zn', 'O']",40.0,-153.84944307,0.0018734691484372235,0.0,
20913,Cs16O96Si40Zn8,mp-1214991,Cs2ZnSi5O12,"['Cs', 'Zn', 'Si', 'O']",160.0,-1130.41176188,0.0,0.0,
26928,Cs8Se32Sn12Zn4,mp-1194701,Cs2ZnSn3Se8,"['Cs', 'Zn', 'Sn', 'Se']",56.0,-209.91655138,0.001014203959961435,0.0,
25932,Ag2Cs2Te4Zr1,mp-1078823,Cs2Zr(AgTe2)2,"['Cs', 'Zr', 'Ag', 'Te']",9.0,-35.79458665,0.0,-3.552713678800501e-15,
3521,Cs2I6O18Zr1,mp-556129,Cs2Zr(IO3)6,"['Cs', 'Zr', 'I', 'O']",27.0,-133.15447165,0.00011323713830879711,0.0,
20421,Cs6O45Si18Zr3,mp-581877,Cs2Zr(Si2O5)3,"['Cs', 'Zr', 'Si', 'O']",72.0,-554.43136663,0.0,0.0,
8099,Cs4O18Si6Zr2,mp-6694,Cs2Zr(SiO3)3,"['Cs', 'Zr', 'Si', 'O']",30.0,-226.64465334,0.0,-8.881784197001252e-16,
19070,Cs2O12W3Zr1,mp-1226158,Cs2Zr(WO4)3,"['Cs', 'Zr', 'W', 'O']",18.0,-133.05901069,0.001074547170137663,0.0,
15826,C1Cs2I18Zr7,mp-571150,Cs2Zr7CI18,"['Cs', 'Zr', 'C', 'I']",28.0,-128.17353205,0.0004195140136715736,0.0,
24794,Cl6Cs2Zr1,mp-638729,Cs2ZrCl6,"['Cs', 'Zr', 'Cl']",9.0,-39.30062824,-1.7763568394002505e-15,-1.7763568394002505e-15,
19499,Cs4Cu6F24Zr2,mp-1201167,Cs2ZrCu3F12,"['Cs', 'Zr', 'Cu', 'F']",36.0,-178.94649375,0.0007711697048611299,0.0,
2655,Cs2F6Zr1,mp-7903,Cs2ZrF6,"['Cs', 'Zr', 'F']",9.0,-52.11064836,1.950934353001088e-05,-2.6645352591003757e-15,
8769,Cs2I6Zr1,mp-1206511,Cs2ZrI6,"['Cs', 'Zr', 'I']",9.0,-30.80969429,0.0001954159385850751,0.0,
27866,Cs4Mn2Mo8O32Zr2,mp-1226199,Cs2ZrMn(MoO4)4,"['Cs', 'Zr', 'Mn', 'Mo', 'O']",48.0,-345.3762879,5.0545328775797316e-06,0.0,
12769,Cs4O6Zr2,mp-8759,Cs2ZrO3,"['Cs', 'Zr', 'O']",12.0,-79.04443024,0.0,1.7763568394002505e-15,
24068,Cs4Se6Zr2,mp-9856,Cs2ZrSe3,"['Cs', 'Zr', 'Se']",12.0,-58.209543,0.0,0.0,
10312,Cr20Cs3Se32,mp-1228215,Cs3(Cr5Se8)4,"['Cs', 'Cr', 'Se']",55.0,-342.26847247,0.0,0.0,
4455,Cs3O8Se2,mp-1214772,Cs3(SeO4)2,"['Cs', 'Se', 'O']",13.0,-64.54511189,0.02906614148296427,0.0,
17703,Ag4As16Cs12Se32,mp-1199633,Cs3Ag(AsSe2)4,"['Cs', 'Ag', 'As', 'Se']",64.0,-241.75465221,0.0003102704919433208,0.0,
21698,Ag4Cs6S16Sb6,mp-1198053,Cs3Ag2Sb3S8,"['Cs', 'Ag', 'Sb', 'S']",32.0,-125.54723004,0.01337902479955222,0.0,
3199,Ag9Cs3S12Sb4,mp-1226259,Cs3Ag9(SbS3)4,"['Cs', 'Ag', 'Sb', 'S']",28.0,-104.7605744,0.014013487045231532,0.0,
14605,Al8As16Cs24,mp-582723,Cs3AlAs2,"['Cs', 'Al', 'As']",48.0,-149.36786575,5.898482259114601e-05,0.0,
31090,Al1Cs3F6,mp-1113118,Cs3AlF6,"['Cs', 'Al', 'F']",10.0,-48.98408251,0.0014402414316379009,-2.6645352591003757e-15,
23040,Al2Cs6Ge4O14,mp-561315,Cs3AlGe2O7,"['Cs', 'Al', 'Ge', 'O']",26.0,-153.62171776,-8.881784197001252e-16,0.0,
10645,Al4Cs12O12,mp-562441,Cs3AlO3,"['Cs', 'Al', 'O']",28.0,-137.40402786,0.0,0.0,
31301,Al8Cs24P16,mp-619651,Cs3AlP2,"['Cs', 'Al', 'P']",48.0,-159.22730538,0.0001797086767578726,0.0,
30505,Al4Cs12Te12,mp-1193748,Cs3AlTe3,"['Cs', 'Al', 'Te']",28.0,-90.44748932,0.0001477028571428285,0.0,
26993,As6Cs18,mp-542220,Cs3As,"['Cs', 'As']",24.0,-49.54102624,0.024364294981773504,0.0,
30719,As4Cs12P12Se36,mp-1201199,Cs3As(PSe3)3,"['Cs', 'As', 'P', 'Se']",64.0,-255.43035286,0.0002199847619630546,0.0,
23352,As44Cs12,mp-573812,Cs3As11,"['Cs', 'As']",56.0,-232.19528189,4.686793108277243e-05,0.0,
220,As2Cl9Cs3,mp-1541714,Cs3As2Cl9,"['Cs', 'As', 'Cl']",14.0,-47.01547808,-1.7763568394002505e-15,-1.7763568394002505e-15,
20580,As5Cs3O9,mp-30300,Cs3As5O9,"['Cs', 'As', 'O']",17.0,-95.15960288,2.0354916130393974e-05,0.0,
6292,As56Cs24,mp-573631,Cs3As7,"['Cs', 'As']",80.0,-313.49125694,0.0,0.0,
1087,As4Cs12O16,mp-30119,Cs3AsO4,"['Cs', 'As', 'O']",32.0,-161.76225261,0.0,0.0,
2461,As4Cs12Se16,mp-1201774,Cs3AsSe4,"['Cs', 'As', 'Se']",32.0,-112.22957461,0.0008038169665525174,0.0,
7541,Au8Br44Cs12,mp-569984,Cs3Au2Br11,"['Cs', 'Au', 'Br']",64.0,-162.35997814,0.0025301025201414085,4.440892098500626e-16,
8733,Au2Cs6O2,mp-505212,Cs3AuO,"['Cs', 'Au', 'O']",10.0,-29.1790406,0.0006691837133789846,0.0,
20297,Au12Cs36O24,mp-572441,Cs3AuO2,"['Cs', 'Au', 'O']",72.0,-261.36534439,9.520256401884808e-05,0.0,
7031,B4Cs12O48Se12,mp-1201201,Cs3B(SeO4)3,"['Cs', 'B', 'Se', 'O']",76.0,-414.75924254,0.00019457865234340233,-5.329070518200751e-15,
14508,B6Cs6Se20,mp-1196535,Cs3B3Se10,"['Cs', 'B', 'Se']",32.0,-132.83370248,6.276811157235329e-05,0.0,
1530,As4B2Cs6,mp-573658,Cs3BAs2,"['Cs', 'B', 'As']",12.0,-41.54133455,3.859066162092972e-05,-1.3322676295501878e-15,
12343,B8Cs24O24,mp-1019608,Cs3BO3,"['Cs', 'B', 'O']",56.0,-296.80964188,0.02000311218052442,0.0,
11019,B2Cs6P4,mp-9675,Cs3BP2,"['Cs', 'B', 'P']",12.0,-45.03510074,0.0,0.0,
14420,B4Cs12S12,mp-30222,Cs3BS3,"['Cs', 'B', 'S']",28.0,-116.13230361,3.790425711525103e-05,0.0,
23877,Bi1Cs3,mp-635413,Cs3Bi,"['Cs', 'Bi']",4.0,-7.71126848,0.02335356290710444,0.0,
2547,Bi8Cs12P12S48,mp-1200951,Cs3Bi2(PS4)3,"['Cs', 'Bi', 'P', 'S']",80.0,-356.51033709,0.00023295678515555807,0.0,
2345,Bi2Br9Cs3,mp-27544,Cs3Bi2Br9,"['Cs', 'Bi', 'Br']",14.0,-42.88609144,0.002743143777203194,-1.3322676295501878e-15,
25682,Bi2Cl9Cs3,mp-1104268,Cs3Bi2Cl9,"['Cs', 'Bi', 'Cl']",14.0,-47.83465911,0.0018834736056065893,-1.7763568394002505e-15,
25543,Bi4Cs6I18,mp-669458,Cs3Bi2I9,"['Cs', 'Bi', 'I']",28.0,-75.54935148,7.39012618580226e-05,-1.3322676295501878e-15,
22364,Bi4Cl24Cs12,mp-570123,Cs3BiCl6,"['Cs', 'Bi', 'Cl']",40.0,-136.53557644,8.963257910021838e-05,-1.7763568394002505e-15,
8456,Bi1Cs3F6,mp-1112606,Cs3BiF6,"['Cs', 'Bi', 'F']",10.0,-44.13028429,0.019011149247068815,-1.7763568394002505e-15,
10014,Bi4Cs12O12,mp-29505,Cs3BiO3,"['Cs', 'Bi', 'O']",28.0,-122.61470333,2.5623084542125696e-05,0.0,
13242,Bi4Cs12Se12,mp-581738,Cs3BiSe3,"['Cs', 'Bi', 'Se']",28.0,-94.9201204,0.00021693936244382428,0.0,
22752,Br2Cs6O2,mp-1205638,Cs3BrO,"['Cs', 'Br', 'O']",10.0,-31.65131851,0.0,0.0,
15763,Ca2Cl7Cs3,mp-1213703,Cs3Ca2Cl7,"['Cs', 'Ca', 'Cl']",12.0,-46.32834849,0.0002061530550125923,0.0,
3917,Ca4Cs12Fe4O56P16,mp-1198664,Cs3CaFe(P2O7)2,"['Cs', 'Ca', 'Fe', 'P', 'O']",92.0,-620.72457905,0.00015327310631807478,0.0,
25596,Cd2Cs6H10,mp-1184118,Cs3CdH5,"['Cs', 'Cd', 'H']",18.0,-43.88017234,0.00024209384982620819,0.0,
14869,Ce1Cl6Cs3,mp-1112370,Cs3CeCl6,"['Cs', 'Ce', 'Cl']",10.0,-40.48940298,0.05408685654101397,-1.7763568394002505e-15,
5189,Ce1Cs3F6,mp-632715,Cs3CeF6,"['Cs', 'Ce', 'F']",10.0,-51.98579722,0.02724924299633802,0.0,
19314,Br10Co2Cs6,mp-29287,Cs3CoBr5,"['Cs', 'Co', 'Br']",18.0,-60.34184863,0.0,0.0,
20748,Cl10Co2Cs6,mp-1105622,Cs3CoCl5,"['Cs', 'Co', 'Cl']",18.0,-66.18889413,7.255918402826467e-05,0.0,
14670,Co1Cs3F6,mp-1206497,Cs3CoF6,"['Cs', 'Co', 'F']",10.0,-43.54142318,0.01620030284960894,0.0,
18848,Co4Cs12I20,mp-569323,Cs3CoI5,"['Cs', 'Co', 'I']",36.0,-108.60093038,0.0011860359478115257,0.0,
15535,Br18Cr4Cs6,mp-23451,Cs3Cr2Br9,"['Cs', 'Cr', 'Br']",28.0,-109.4179975,-1.7763568394002505e-15,-1.7763568394002505e-15,
6126,Cl18Cr4Cs6,mp-1193179,Cs3Cr2Cl9,"['Cs', 'Cr', 'Cl']",28.0,-121.04248006,0.00024204515066816867,-1.7763568394002505e-15,
30888,Cr4Cs6I18,mp-621938,Cs3Cr2I9,"['Cs', 'Cr', 'I']",28.0,-97.41110595,0.00015485952148219795,-1.7763568394002505e-15,
30166,Cr2Cs6F14,mp-614724,Cs3CrF7,"['Cs', 'Cr', 'F']",22.0,-105.900694,0.0011981388549822114,0.0,
2756,Cs3Cu20Te13,mp-1194744,Cs3Cu20Te13,"['Cs', 'Cu', 'Te']",36.0,-132.89368106,0.003910840957149997,0.0,
22111,Br20Cs12Cu8,mp-582423,Cs3Cu2Br5,"['Cs', 'Cu', 'Br']",40.0,-124.67654218,0.00037714069042982246,0.0,
14666,Cl20Cs12Cu8,mp-582024,Cs3Cu2Cl5,"['Cs', 'Cu', 'Cl']",40.0,-135.24560222,0.0003963977470702318,0.0,
8700,Cs12Cu8I20,mp-23481,Cs3Cu2I5,"['Cs', 'Cu', 'I']",40.0,-114.57776858,0.0,0.0,
5578,Cs12Cu20O16,mp-16543,Cs3Cu5O4,"['Cs', 'Cu', 'O']",48.0,-212.99908185,0.00017752961426609204,0.0,
5039,Br18Cs6Er4,mp-1193312,Cs3Er2Br9,"['Cs', 'Er', 'Br']",28.0,-106.52757416,0.0001516984395912857,-1.7763568394002505e-15,
19027,Cs6Er4I18,mp-1194135,Cs3Er2I9,"['Cs', 'Er', 'I']",28.0,-93.00579661,0.0007534143540715021,-1.7763568394002505e-15,
18036,Cs6Er10P12S48,mp-1226424,Cs3Er5(PS4)6,"['Cs', 'Er', 'P', 'S']",76.0,-395.61036143,0.0003606232740640536,-9.769962616701378e-15,
15707,Cl24Cs12Er4,mp-1213797,Cs3ErCl6,"['Cs', 'Er', 'Cl']",40.0,-159.93885674,4.6000933592083015e-05,-1.7763568394002505e-15,
14225,Cs12Er4O12,mp-1178430,Cs3ErO3,"['Cs', 'Er', 'O']",28.0,-142.41310207,0.024657308817293888,0.0,
28408,Cs12Eu4O60Si24,mp-1229260,Cs3Eu(Si2O5)3,"['Cs', 'Eu', 'Si', 'O']",100.0,-747.04864527,-1.1191048088221578e-13,0.0,
20104,Cs3Eu1F6,mp-1207159,Cs3EuF6,"['Cs', 'Eu', 'F']",10.0,-54.15168704,0.11644973166894523,0.0,
31141,Cs6F18Fe4,mp-541662,Cs3Fe2F9,"['Cs', 'Fe', 'F']",28.0,-136.78878875,0.0003992900739397953,0.0,
4971,Cs12Fe16O80P20,mp-581532,Cs3Fe4(PO4)5,"['Cs', 'Fe', 'P', 'O']",128.0,-870.90754841,0.0021668543103023907,3.552713678800501e-15,
29865,Cs3F6Fe1,mp-1205629,Cs3FeF6,"['Cs', 'Fe', 'F']",10.0,-46.61407119,0.003148990619140868,0.0,
17843,Cs12Fe4O12,mp-1193066,Cs3FeO3,"['Cs', 'Fe', 'O']",28.0,-130.20648347,0.00013964588169645964,0.0,