,Composition,MaterialId,Reduced Formula,Elements,NSites,Corrected Energy,Decomposition Energy Per Atom All,Decomposition Energy Per Atom MP,Directory
18567,As1I3S24,mp-30934,As(S8I)3,"['As', 'S', 'I']",28.0,-109.19270726,0.0003935748556074259,0.0,
12517,As8O48S12,mp-28005,As2(SO4)3,"['As', 'S', 'O']",68.0,-405.00603187,0.0,0.0,
9493,As8Cl12F20O4,mp-557417,As2Cl3OF5,"['As', 'Cl', 'O', 'F']",44.0,-181.48158438,0.00018417014115801322,0.0,
1526,As16F104H8Pb8,mp-758957,As2HPbF13,"['As', 'H', 'Pb', 'F']",136.0,-611.97851601,0.013486960516987168,0.0,
20925,As8Ir4,mp-15649,As2Ir,"['As', 'Ir']",12.0,-78.41911738,-8.881784197001252e-16,-8.881784197001252e-16,
16911,As8O12,mp-1581,As2O3,"['As', 'O']",20.0,-120.98617031,0.0,0.0,
23078,As8O20,mp-555434,As2O5,"['As', 'O']",28.0,-166.18778477,2.1088362164078944e-05,0.0,
26590,As4Os2,mp-2455,As2Os,"['As', 'Os']",6.0,-42.40457013,4.4738668619537236e-05,0.0,
5918,As8P8S28,mp-540883,As2P2S7,"['As', 'P', 'S']",44.0,-204.68778937,0.0004407750381743014,0.0,
29060,As4Cl8O34Pb28,mp-680722,As2Pb14Cl4O17,"['As', 'Pb', 'Cl', 'O']",74.0,-397.26661795,0.0,0.0,
9770,As8O20Pb8,mp-505465,As2Pb2O5,"['As', 'Pb', 'O']",36.0,-211.30941789,1.2439796006624704e-05,0.0,
4950,As4O16Pb6,mp-505368,As2Pb3O8,"['As', 'Pb', 'O']",26.0,-154.20384507,1.1207869591522979e-05,0.0,
31028,As4O26Pb16,mp-31107,As2Pb8O13,"['As', 'Pb', 'O']",46.0,-264.06210529,0.0,0.0,
25924,As8O16Pb4,mp-28537,As2PbO4,"['As', 'Pb', 'O']",28.0,-166.47835211,9.591463309188697e-05,0.0,
7086,As2O6Pb1,mp-20015,As2PbO6,"['As', 'Pb', 'O']",9.0,-54.21745944,0.0,0.0,
22539,As8Pd4,mp-20465,As2Pd,"['As', 'Pd']",12.0,-61.86797623,0.0,0.0,
12451,As8Pt4,mp-2513,As2Pt,"['As', 'Pt']",12.0,-67.76840999,0.0,0.0,
27632,As8Rh4,mp-15954,As2Rh,"['As', 'Rh']",12.0,-72.75185159,0.0,0.0,
28328,As4Ru2,mp-766,As2Ru,"['As', 'Ru']",6.0,-39.56802585,0.0,0.0,
14285,As8O36S8,mp-27739,As2S2O9,"['As', 'S', 'O']",52.0,-311.19048695,0.00016546843449471993,0.0,
19611,As8S12,mp-641,As2S3,"['As', 'S']",20.0,-89.46245407,1.3972525390038015e-05,0.0,
30825,As4O12S2,mp-27230,As2SO6,"['As', 'S', 'O']",18.0,-108.40061988,0.0004231699153649515,0.0,
27476,As4Se6,mp-1078443,As2Se3,"['As', 'Se']",10.0,-40.79416479,0.0014628056679679702,0.0,
9462,As3H5O10,mp-27404,As3(HO2)5,"['As', 'H', 'O']",18.0,-99.80937986,0.0001226310687929555,0.0,
9525,As12H4O24,mp-626378,As3HO6,"['As', 'H', 'O']",40.0,-234.92517349,0.002525048125977314,0.0,
30731,As12Ir4,mp-540912,As3Ir,"['As', 'Ir']",16.0,-98.12978712,0.0,0.0,
28779,As6Br2O12Pb4,mp-1192209,As3Pb2BrO6,"['As', 'Pb', 'Br', 'O']",24.0,-135.00909228,0.0005238191845693407,0.0,
26077,As12Cl4O24Pb8,mp-561268,As3Pb2ClO6,"['As', 'Pb', 'Cl', 'O']",48.0,-272.02106591,0.0,0.0,
13346,As6Br2O24Pb10,mp-1214749,As3Pb5BrO12,"['As', 'Pb', 'Br', 'O']",42.0,-242.13096391,0.0,0.0,
30742,As12Cl4O48Pb20,mp-566301,As3Pb5ClO12,"['As', 'Pb', 'Cl', 'O']",84.0,-487.10563152,-5.329070518200751e-15,0.0,
18118,As6Cl2O18Pb10,mp-510724,As3Pb5ClO9,"['As', 'Pb', 'Cl', 'O']",36.0,-202.95772058,7.60566156685627e-05,0.0,
15972,As6F2O24Pb10,mp-1214667,As3Pb5O12F,"['As', 'Pb', 'O', 'F']",42.0,-246.932604,0.00047594061569977697,0.0,
15993,As12Rh4,mp-8182,As3Rh,"['As', 'Rh']",16.0,-92.30752481,0.0,0.0,
617,As6W4,mp-11696,As3W2,"['As', 'W']",10.0,-80.59738993,0.00027153556445291827,0.0,
10916,As4P1Rh10,mp-1228867,As4PRh10,"['As', 'P', 'Rh']",15.0,-105.5956542,0.0006380272916670648,0.0,
14210,As2Au2O8,mp-1095378,AsAuO4,"['As', 'Au', 'O']",12.0,-63.95534488,0.00034861493978510794,5.329070518200751e-15,
25291,As4Br12,mp-23317,AsBr3,"['As', 'Br']",16.0,-45.68086274,0.012135545226440225,0.0,
19246,As4Br4F32O4,mp-1229049,AsBrOF8,"['As', 'Br', 'O', 'F']",44.0,-169.29486838,0.0010474305060368394,0.0,
23615,As4Cl8F12,mp-23444,AsCl2F3,"['As', 'Cl', 'F']",24.0,-91.19661901,4.543340087792558e-05,0.0,
22134,As4Cl12,mp-23280,AsCl3,"['As', 'Cl']",16.0,-52.29155589,0.003875584786376951,0.0,
29558,As4Cl12O4,mp-29863,AsCl3O,"['As', 'Cl', 'O']",20.0,-73.6602731,0.0013799027392584762,0.0,
9109,As2Cl10,mp-30106,AsCl5,"['As', 'Cl']",12.0,-33.07329452,0.025363324912109686,0.0,
8759,As2Cl2F16,mp-27926,AsClF8,"['As', 'Cl', 'F']",20.0,-73.35251022,0.0002367234970703791,0.0,
5436,As4Cl4F32O4,mp-1201143,AsClOF8,"['As', 'Cl', 'O', 'F']",44.0,-167.54052338,0.0015977019460224895,0.0,
3043,As4F12,mp-28027,AsF3,"['As', 'F']",16.0,-75.66264313,0.00041764815551736945,0.0,
14105,As2F10,mp-8723,AsF5,"['As', 'F']",12.0,-52.50534711,0.002454124195149454,0.0,
9671,As4H72N12O28,mp-720294,AsH18N3O7,"['As', 'H', 'N', 'O']",116.0,-596.87664467,0.0,-8.881784197001252e-16,
12877,As2F12H6O2,mp-1191113,AsH3OF6,"['As', 'H', 'O', 'F']",22.0,-100.85482502,0.0001023999920093388,-8.881784197001252e-15,
31142,As4H36N8O16,mp-1203108,AsH9(NO2)2,"['As', 'H', 'N', 'O']",64.0,-337.67393361,0.0059317714472602034,0.0,
14205,As4Cl16H4O16Pb16,mp-707734,AsHPb4(ClO)4,"['As', 'H', 'Pb', 'Cl', 'O']",56.0,-268.11544598,0.001478673731862834,0.0,
12117,As2H2O8Pb2,mp-1228828,AsHPbO4,"['As', 'H', 'Pb', 'O']",14.0,-80.69130734,0.0013478155580362028,0.0,
15225,As2I6,mp-23218,AsI3,"['As', 'I']",8.0,-20.03946587,0.00025859020935037336,0.0,
9343,As2F12I10,mp-31020,AsI5F6,"['As', 'I', 'F']",24.0,-76.71766928,0.0002652753613285874,0.0,
8129,As4F48I4,mp-555340,AsIF12,"['As', 'I', 'F']",56.0,-207.64346484,0.0003023289941399554,0.0,
18051,As4Ir4S4,mp-1228823,AsIrS,"['As', 'Ir', 'S']",12.0,-77.46144995,0.00483765166829464,0.0,
13711,As4Ir4Se4,mp-1228810,AsIrSe,"['As', 'Ir', 'Se']",12.0,-74.16676354,0.007050853274736646,-1.7763568394002505e-15,
2742,As1F6N1O2,mp-1182477,AsN(OF3)2,"['As', 'N', 'O', 'F']",10.0,-49.14154723,0.0006935954814446532,0.0,
16122,As4Os4S4,mp-1214793,AsOsS,"['As', 'Os', 'S']",12.0,-84.1965375,0.0001440511067682948,-1.7763568394002505e-15,
11145,As4Os4Se4,mp-1214784,AsOsSe,"['As', 'Os', 'Se']",12.0,-80.24982856,0.031283400843096665,-1.7763568394002505e-15,
22917,As4O16P4,mp-8140,AsPO4,"['As', 'P', 'O']",24.0,-161.29301874,1.2087412109451634e-05,0.0,
2558,As4O20P4,mp-14367,AsPO5,"['As', 'P', 'O']",28.0,-183.3652172,1.2798625837362465e-05,0.0,
2351,As8Cl8O16Pb8,mp-560394,AsPbClO2,"['As', 'Pb', 'Cl', 'O']",40.0,-210.52517387,6.662798144496662e-05,-8.881784197001252e-16,
26065,As2F14Pb2,mp-29992,AsPbF7,"['As', 'Pb', 'F']",18.0,-83.13861031,0.002059247100712369,0.0,
31440,As4Pd8,mp-8073,AsPd2,"['As', 'Pd']",12.0,-64.55351816,0.0,0.0,
16697,As4Pd12,mp-1105134,AsPd3,"['As', 'Pd']",16.0,-86.63060959,0.0,0.0,
19062,As2Pb4Pd6,mp-20257,AsPd3Pb2,"['As', 'Pd', 'Pb']",12.0,-59.2549591,8.881784197001252e-16,0.0,
8066,As2Pd10,mp-2512,AsPd5,"['As', 'Pd']",12.0,-64.35730597,0.0,0.0,
16838,As4Pd4S4,mp-10848,AsPdS,"['As', 'Pd', 'S']",12.0,-60.18045723,0.0,0.0,
17505,As4Pd4Se4,mp-10849,AsPdSe,"['As', 'Pd', 'Se']",12.0,-57.6213494,0.0,0.0,
28943,As1Rh2,mp-2302,AsRh2,"['As', 'Rh']",3.0,-20.76911516,0.0007401472688810529,0.0,
29997,As4Rh4S4,mp-1228745,AsRhS,"['As', 'Rh', 'S']",12.0,-71.9735233,0.005196565006510667,0.0,
5278,As4Rh4Se4,mp-1228724,AsRhSe,"['As', 'Rh', 'Se']",12.0,-68.87881385,0.007747125659179233,0.0,
5601,As4Ru4S4,mp-1214786,AsRuS,"['As', 'Ru', 'S']",12.0,-78.30620804,7.36464062480735e-05,-1.7763568394002505e-15,
25657,As4Ru4Se4,mp-1214794,AsRuSe,"['As', 'Ru', 'Se']",12.0,-74.71378673,1.0234358702732038e-06,-1.7763568394002505e-15,
21737,As16S16,mp-542810,AsS,"['As', 'S']",32.0,-145.00783717,0.00019343148559602952,0.0,
4400,As4Cl12F24S4,mp-556705,AsS(ClF2)3,"['As', 'S', 'Cl', 'F']",44.0,-165.51375577,0.00022856481977928667,0.0,
27065,As4F24I8S4,mp-557628,AsS(IF3)2,"['As', 'S', 'I', 'F']",40.0,-151.88871641,0.0022340703408181284,7.105427357601002e-15,
30687,As8S16,mp-1191613,AsS2,"['As', 'S']",24.0,-105.09168283,0.023992376997062692,0.0,
14620,As4Br12F24Se4,mp-1214921,AsSe(BrF2)3,"['As', 'Se', 'Br', 'F']",44.0,-159.83471102,0.0,0.0,
29032,As4Cl12F24Se4,mp-554706,AsSe(ClF2)3,"['As', 'Se', 'Cl', 'F']",44.0,-165.13385464,0.00029972642134179495,0.0,
12202,As4F24I12Se4,mp-559575,AsSe(IF2)3,"['As', 'Se', 'I', 'F']",44.0,-156.21246321,0.00011829552024122947,-4.440892098500626e-16,
28295,As4Cl12F24Se12,mp-23575,AsSe3(ClF2)3,"['As', 'Se', 'Cl', 'F']",52.0,-193.84678892,0.00420800325327253,0.0,
20992,As2F12I2Se12,mp-23569,AsSe6IF6,"['As', 'Se', 'I', 'F']",28.0,-107.75641931,0.017311356290178104,0.0,
16830,As4I4Se4,mp-505373,AsSeI,"['As', 'Se', 'I']",12.0,-40.77115058,0.01677587075439524,0.0,
1557,As6F54Xe12,mp-1182721,AsXe2F9,"['As', 'Xe', 'F']",72.0,-223.35426774,-6.217248937900877e-15,-6.217248937900877e-15,
21791,As4F44Xe4,mp-554379,AsXeF11,"['As', 'Xe', 'F']",52.0,-162.97510362,0.0,0.0,
29384,As4F28Xe4,mp-27750,AsXeF7,"['As', 'Xe', 'F']",36.0,-127.68547684,0.0,0.0,
14914,Au1,mp-81,Au,['Au'],1.0,-3.273882,0.00645223423767094,0.0,
24737,Au1F6O2,mp-990238,Au(OF3)2,"['Au', 'O', 'F']",9.0,-30.2116936,0.006435503184679003,0.0,
12076,Au4O6,mp-27253,Au2O3,"['Au', 'O']",10.0,-43.23982798,1.4864353516053086e-05,0.0,
21730,Au4S2,mp-947,Au2S,"['Au', 'S']",6.0,-21.80057617,2.34581575520032e-05,0.0,
26522,Au4O20Se6,mp-559824,Au2Se3O10,"['Au', 'Se', 'O']",30.0,-146.47194626,0.001139266919270021,0.0,
29538,Au4O22Se8,mp-27441,Au2Se4O11,"['Au', 'Se', 'O']",34.0,-168.41172213,0.00011815440831597357,-2.6645352591003757e-15,
53,Au6F16,mp-17407,Au3F8,"['Au', 'F']",22.0,-71.14951321,2.0046368964798944e-06,0.0,
918,Au4Br4,mp-505366,AuBr,"['Au', 'Br']",8.0,-20.73124289,0.0014340781420898452,0.0,
7529,Au8Br24,mp-27213,AuBr3,"['Au', 'Br']",32.0,-70.48549164,0.0003437728314192867,0.0,
1453,Au2Br2F12,mp-30159,AuBrF6,"['Au', 'Br', 'F']",16.0,-47.98836855,5.263777466391062e-05,0.0,
5550,Au4Cl4,mp-32780,AuCl,"['Au', 'Cl']",8.0,-22.21138006,4.497602050790306e-05,0.0,
10029,Au4Cl8,mp-541656,AuCl2,"['Au', 'Cl']",12.0,-30.89078683,0.0032562412377927785,0.0,
12618,Au4Cl12,mp-27647,AuCl3,"['Au', 'Cl']",16.0,-39.43079971,3.682346862765584e-05,0.0,
12483,Au6Cl6O6,mp-27265,AuClO,"['Au', 'Cl', 'O']",18.0,-63.39199099,0.0,0.0,
5135,Au6F18,mp-942,AuF3,"['Au', 'F']",24.0,-77.42893954,2.0753419596175604e-05,0.0,
7920,Au8F40,mp-30103,AuF5,"['Au', 'F']",48.0,-138.442798,0.0015819900105791262,0.0,
5912,Au4I4,mp-27725,AuI,"['Au', 'I']",8.0,-19.80250971,2.7938166503815864e-05,0.0,
2705,Au2I4,mp-1214760,AuI2,"['Au', 'I']",6.0,-12.36134395,0.1153712575093584,0.0,
28353,Au2N10O28,mp-560745,AuN5O14,"['Au', 'N', 'O']",40.0,-236.68528977,6.651063281282177e-05,0.0,
14707,Au4F12O36S12,mp-560021,AuS3(O3F)3,"['Au', 'S', 'O', 'F']",64.0,-338.94592464,0.0009617678625488679,0.0,
742,Au4Cl20S4,mp-28192,AuSCl5,"['Au', 'S', 'Cl']",28.0,-73.64554034,0.013728341458327797,0.0,
9238,Au4Cl28S4,mp-556587,AuSCl7,"['Au', 'S', 'Cl']",36.0,-90.09252353,0.00020301222818996933,2.6645352591003757e-15,
31713,Au8O32S8,mp-30003,AuSO4,"['Au', 'S', 'O']",48.0,-258.67918883,9.068070638118542e-05,0.0,
3869,Au2Se2,mp-2793,AuSe,"['Au', 'Se']",4.0,-13.94305449,0.0004367711767576665,0.0,
16312,Au8Br8Se8,mp-27199,AuSeBr,"['Au', 'Se', 'Br']",24.0,-70.98659947,0.002828909005533564,0.0,
6506,Au4Cl28Se4,mp-28372,AuSeCl7,"['Au', 'Se', 'Cl']",36.0,-90.44831251,5.382086208793879e-05,0.0,
18214,Au4Cl4O12Se4,mp-560549,AuSeClO3,"['Au', 'Se', 'Cl', 'O']",24.0,-105.12409759,0.0016218441910806902,0.0,
28931,Au4F68Xe8,mp-644828,AuXe2F17,"['Au', 'Xe', 'F']",80.0,-185.59055646,0.0,0.0,
460,B12,mp-160,B,['B'],12.0,-80.15270125,0.0,0.0,
24745,B4H12O12,mp-23791,B(HO)3,"['B', 'H', 'O']",28.0,-170.50798402,0.000621237218186188,-5.329070518200751e-15,
18076,B10O21Pb6,mp-27184,B10(Pb2O7)3,"['B', 'Pb', 'O']",37.0,-269.52344597,-1.3322676295501878e-14,-1.3322676295501878e-14,
29641,B40C8H44,mp-1229024,B10H11C2,"['B', 'H', 'C']",92.0,-501.14818801,0.0,0.0,
29597,B40H56S4,mp-1199941,B10H14S,"['B', 'H', 'S']",100.0,-484.30126177,0.00020589439272011845,8.881784197001252e-15,
13766,B13C2,mp-576,B13C2,"['B', 'C']",15.0,-106.36292123,5.1467153645567976e-05,0.0,
26930,B16H40,mp-27990,B2H5,"['B', 'H']",56.0,-245.4587111,0.00015399097725588007,0.0,
26349,B4Mo2,mp-2331,B2Mo,"['B', 'Mo']",6.0,-50.99919303,0.0032288502652981776,0.0,
9897,B4Mo2O24Pb12,mp-1196917,B2Mo(PbO2)6,"['B', 'Mo', 'Pb', 'O']",42.0,-271.70642373,0.0006596528664442047,0.0,
18614,B6O9,mp-306,B2O3,"['B', 'O']",15.0,-120.39584432,0.0001885565638026776,0.0,
21534,B4Os2,mp-2850,B2Os,"['B', 'Os']",6.0,-50.45030917,8.59279248039968e-05,0.0,
12502,B16Pb16S40,mp-662553,B2Pb2S5,"['B', 'Pb', 'S']",72.0,-366.90799652,0.0008462736480039368,0.0,
14490,B8O28Pb16,mp-1203040,B2Pb4O7,"['B', 'Pb', 'O']",52.0,-338.55827654,0.0006397812695313476,0.0,
22941,B8O48Pb24S4,mp-553930,B2Pb6SO12,"['B', 'Pb', 'S', 'O']",84.0,-529.75141845,0.0,-2.6645352591003757e-15,
31761,B4Ru2,mp-1077,B2Ru,"['B', 'Ru']",6.0,-46.98180171,0.00011607649088585248,0.0,
22668,B2O9S2,mp-1019509,B2S2O9,"['B', 'S', 'O']",13.0,-87.13670945,1.5870883412816283e-05,0.0,
25736,B100S150,mp-1199451,B2S3,"['B', 'S']",250.0,-1396.79775689,0.0,0.0,
12225,B8O28Se8,mp-558521,B2Se2O7,"['B', 'Se', 'O']",44.0,-284.48347434,0.00011878608487236875,0.0,
26300,B8O40Se12,mp-1194590,B2Se3O10,"['B', 'Se', 'O']",60.0,-365.09672505,0.0,0.0,
14891,B8W4,mp-569803,B2W,"['B', 'W']",12.0,-109.26297388,0.028894734446613057,0.0,
1419,B12H16N4O20,mp-1200137,B3H4NO5,"['B', 'H', 'N', 'O']",52.0,-353.06415382,0.0012820291526427496,-8.881784197001252e-16,
10341,B6Os4,mp-1079348,B3Os2,"['B', 'Os']",10.0,-87.52159895,8.238405273353067e-05,0.0,
7844,B6Br6O26Pb20,mp-1229254,B3Pb10Br3O13,"['B', 'Pb', 'Br', 'O']",58.0,-339.84477482,0.0032316632491680153,0.0,
15252,B12N4O40Pb12,mp-1200969,B3Pb3NO10,"['B', 'Pb', 'N', 'O']",68.0,-466.23767719,0.0005054042313741292,-1.3322676295501878e-14,
24210,B12Br4O40Pb24,mp-1195239,B3Pb6BrO10,"['B', 'Pb', 'Br', 'O']",80.0,-507.01143755,0.0002510552832157842,0.0,
22273,B12Cl4O40Pb24,mp-560833,B3Pb6ClO10,"['B', 'Pb', 'Cl', 'O']",80.0,-509.34929657,9.819106835973201e-05,0.0,
13439,B6Ru4,mp-13854,B3Ru2,"['B', 'Ru']",10.0,-80.49074585,0.000740020712891365,0.0,
10413,B12C3,mp-1238815,B4C,"['B', 'C']",15.0,-109.34387107,6.0593217448001724e-05,0.0,
14665,B4Os1W1,mp-1228631,B4OsW,"['B', 'Os', 'W']",6.0,-52.63774876,0.006947192547201553,0.0,
5765,B8O14Pb2,mp-9747,B4PbO7,"['B', 'Pb', 'O']",24.0,-184.05003617,0.0,0.0,
2754,B8Rh10,mp-567926,B4Rh5,"['B', 'Rh']",18.0,-133.49952896,2.4473467882479838e-05,0.0,
14783,B10H24N2O24,mp-703444,B5H12NO12,"['B', 'H', 'N', 'O']",60.0,-377.14849654,-1.1546319456101628e-14,0.0,
8734,B40H32N8O64,mp-1196660,B5H4NO8,"['B', 'H', 'N', 'O']",144.0,-1027.92388454,0.018769315802950715,3.552713678800501e-15,
22997,B40Br8H48,mp-30977,B5H6Br,"['B', 'H', 'Br']",96.0,-456.32429989,0.0004173546073422685,0.0,
4720,B40H56,mp-706630,B5H7,"['B', 'H']",96.0,-465.11820781,0.004411422246907826,0.0,
12944,B5Ir3W2,mp-1228672,B5Ir3W2,"['B', 'Ir', 'W']",10.0,-89.49432254,0.0009454010292948567,-1.7763568394002505e-15,
17649,B20Br4O36Pb8,mp-23623,B5Pb2BrO9,"['B', 'Pb', 'Br', 'O']",68.0,-493.54964094,0.0001645892325363718,0.0,
19954,B20Cl4O36Pb8,mp-557103,B5Pb2ClO9,"['B', 'Pb', 'Cl', 'O']",68.0,-495.9940214,0.00010929007352888931,0.0,
26683,B20I4O36Pb8,mp-1200548,B5Pb2IO9,"['B', 'Pb', 'I', 'O']",68.0,-490.10451298,0.00039172662683739645,0.0,
1180,As2B12,mp-624,B6As,"['B', 'As']",14.0,-91.85533589,0.0,0.0,
1738,B12H20N2,mp-31064,B6H10N,"['B', 'H', 'N']",34.0,-173.74071699,0.0,0.0,
30694,B12O2,mp-1346,B6O,"['B', 'O']",14.0,-99.94843973,0.0,0.0,
3281,B12P2,mp-28395,B6P,"['B', 'P']",14.0,-95.04289264,0.0,0.0,
5038,B32H16O60Pb4,mp-1200630,B8H4PbO15,"['B', 'H', 'Pb', 'O']",112.0,-812.81191895,0.00019729610071284043,-1.3322676295501878e-14,
24993,B72H88,mp-29654,B9H11,"['B', 'H']",160.0,-793.96506496,0.0,0.0,
8634,B18F2O42Pb16,mp-1182634,B9Pb8O21F,"['B', 'Pb', 'O', 'F']",78.0,-546.23916302,0.00019703484975952534,0.0,
24064,As5B1O20Pb6,mp-622018,BAs5(Pb3O10)2,"['B', 'As', 'Pb', 'O']",32.0,-195.76447991,0.0010911963549800063,0.0,
24109,As1B1O4,mp-3277,BAsO4,"['B', 'As', 'O']",6.0,-41.17603028,1.4626998698474836e-05,0.0,
9352,B2Br6,mp-23225,BBr3,"['B', 'Br']",8.0,-27.39652216,7.495350341724105e-06,0.0,
11826,B2Cl2F8O4,mp-557856,BCl(OF2)2,"['B', 'Cl', 'O', 'F']",16.0,-76.87961581,0.001243128085937073,0.0,
29100,B2Cl6,mp-23184,BCl3,"['B', 'Cl']",8.0,-32.23500418,1.9344443360047592e-05,0.0,
28542,B4Cl4F24,mp-23398,BClF6,"['B', 'Cl', 'F']",32.0,-134.73332881,0.00017041926758665227,0.0,
28803,B8F24,mp-558149,BF3,"['B', 'F']",32.0,-187.81721635,0.00012528480834994582,0.0,
3110,B2H2O8Pb4,mp-1105235,BH(PbO2)2,"['B', 'H', 'Pb', 'O']",16.0,-99.64736942,0.0004044930371094324,0.0,
28612,B4F12H8O4,mp-707009,BH2OF3,"['B', 'H', 'O', 'F']",28.0,-155.20454308,0.008048767476283025,0.0,
28562,B4H12,mp-634117,BH3,"['B', 'H']",16.0,-67.91040237,0.0016017363354494663,0.0,
9283,B8F24H24N8,mp-24160,BH3NF3,"['B', 'H', 'N', 'F']",64.0,-358.18704023,3.0754920654629814e-05,0.0,
11770,B2F8H6O2,mp-696379,BH3OF4,"['B', 'H', 'O', 'F']",18.0,-95.01359328,0.0017739451106963955,1.9539925233402755e-14,
10090,B4F16H16N4,mp-720391,BH4NF4,"['B', 'H', 'N', 'F']",40.0,-214.97163453,0.005994744660156037,0.0,
21005,B4F12H16O8,mp-696656,BH4O2F3,"['B', 'H', 'O', 'F']",40.0,-215.22786172,0.0036515862724613157,0.0,
19404,B4F16H20O8,mp-1196968,BH5(OF2)2,"['B', 'H', 'O', 'F']",48.0,-249.81068741,0.0017382532432055342,0.0,
2833,B1C1F4H6N3,mp-862539,BH6CN3F4,"['B', 'H', 'C', 'N', 'F']",15.0,-87.51269816,0.0001386488710943823,0.0,
919,B12H12O24,mp-1198592,BHO2,"['B', 'H', 'O']",48.0,-331.54788581,0.0,0.0,
24880,B8H8O88S24,mp-1200187,BHS3O11,"['B', 'H', 'S', 'O']",128.0,-783.22443192,0.0008524911035152627,0.0,
28503,B2I6,mp-23189,BI3,"['B', 'I']",8.0,-23.00761804,0.00023175264465313816,0.0,
27395,B1Ir1,mp-1183252,BIr,"['B', 'Ir']",2.0,-15.91883799,0.0071518591870116666,0.0,
15005,B4Ir4Pd4,mp-28897,BIrPd,"['B', 'Ir', 'Pd']",12.0,-86.20175005,0.0,0.0,
24508,B4Mo4,mp-1890,BMo,"['B', 'Mo']",8.0,-74.11804608,0.003683532907714948,0.0,
20229,B2N2,mp-984,BN,"['B', 'N']",4.0,-35.15529351,0.0,0.0,
25574,B4F16N4O8,mp-555207,BN(OF2)2,"['B', 'N', 'O', 'F']",32.0,-184.54255387,2.299383913317854e-05,0.0,
1474,B4F32N4,mp-4674,BNF8,"['B', 'N', 'F']",40.0,-176.63769952,4.024515429712494e-05,0.0,
9642,B4F12O8,mp-1182442,BO2F3,"['B', 'O', 'F']",24.0,-133.1725077,0.004440678515619467,-5.329070518200751e-15,
10478,B1Os1,mp-997617,BOs,"['B', 'Os']",2.0,-18.38046882,0.000122798251952716,0.0,
16332,B1P1,mp-1479,BP,"['B', 'P']",2.0,-12.9076696,1.213145751943756e-05,0.0,
14180,B4Br12I12P4,mp-567433,BP(IBr)3,"['B', 'P', 'I', 'Br']",32.0,-96.49156238,2.791970458959625e-05,0.0,
23607,B4O32P4Pb16,mp-1201606,BP(PbO2)4,"['B', 'P', 'Pb', 'O']",56.0,-364.13674128,0.00047223213030189726,0.0,
22314,B4Br24P4,mp-1201622,BPBr6,"['B', 'P', 'Br']",32.0,-102.75324725,4.4494735717659495e-05,0.0,
6317,B4F4H16N4O16P4,mp-1195775,BPH4NO4F,"['B', 'P', 'H', 'N', 'O', 'F']",48.0,-300.7710195,0.0010027065429678572,0.0,
620,B1O4P1,mp-3589,BPO4,"['B', 'P', 'O']",6.0,-45.72440459,2.096249837180153e-05,0.0,
24632,B3O15P3Pb3,mp-21266,BPPbO5,"['B', 'P', 'Pb', 'O']",24.0,-172.45572598,3.882228515550423e-05,1.3322676295501878e-14,
12236,B1P1S4,mp-27724,BPS4,"['B', 'P', 'S']",6.0,-30.5046907,0.0,0.0,
30228,B6F6O18Pb12,mp-1202733,BPb2O3F,"['B', 'Pb', 'O', 'F']",42.0,-265.24459571,0.0009483001525305568,0.0,
26203,B4Br12O28Pb28,mp-1201413,BPb7Br3O7,"['B', 'Pb', 'Br', 'O']",72.0,-384.20874081,0.002942580193147748,0.0,
14375,B2Pd4,mp-7424,BPd2,"['B', 'Pd']",6.0,-35.67517972,9.453295410111195e-05,0.0,
205,B4Pd12,mp-20517,BPd3,"['B', 'Pd']",16.0,-93.00450103,0.0,0.0,
12185,B4Pd20,mp-1190529,BPd5,"['B', 'Pd']",24.0,-135.54011334,9.86303645831299e-05,0.0,
9298,B2Pd12,mp-1214755,BPd6,"['B', 'Pd']",14.0,-78.30836026,-5.329070518200751e-15,0.0,
20691,B2Pt4,mp-1077788,BPt2,"['B', 'Pt']",6.0,-38.69674942,0.06564796450520749,0.0,
3821,B2Rh2,mp-567164,BRh,"['B', 'Rh']",4.0,-29.5992487,0.0,0.0,
24048,B16S32,mp-540668,BS2,"['B', 'S']",48.0,-258.16153249,9.648238921577956e-06,0.0,
7234,B12Br12S12,mp-27245,BSBr,"['B', 'S', 'Br']",36.0,-167.90336336,2.5937753907356864e-05,0.0,
31792,B4F28S4,mp-27349,BSF7,"['B', 'S', 'F']",36.0,-174.76371784,0.0002510459212237137,-4.440892098500626e-15,
12313,B2Pb2S8Sb2,mp-1228703,BSbPbS4,"['B', 'Sb', 'Pb', 'S']",14.0,-67.91160149,0.002715978078962067,0.0,