,Composition,MaterialId,Reduced Formula,Elements,NSites,Corrected Energy,Decomposition Energy Per Atom All,Decomposition Energy Per Atom MP,Directory
15613,Ba6Li12O24Si6,mp-558310,BaLi2SiO4,"['Ba', 'Li', 'Si', 'O']",48.0,-312.41037643,0.012010575066732088,0.0,
25335,Ba4Li8O56Ti24,mp-558083,BaLi2Ti6O14,"['Ba', 'Li', 'Ti', 'O']",92.0,-763.17295014,0.003575291447040385,3.019806626980426e-14,
256,Al4Ba4F24Li4,mp-543044,BaLiAlF6,"['Ba', 'Li', 'Al', 'F']",36.0,-204.10005979,0.006520298259544255,0.0,
2509,As1Ba1Li1,mp-10616,BaLiAs,"['Ba', 'Li', 'As']",3.0,-11.31710441,0.04122318464274066,0.0,
2873,B4Ba4Li4O12,mp-6499,BaLiBO3,"['Ba', 'Li', 'B', 'O']",24.0,-164.17331107,0.006378874280598801,-8.881784197001252e-16,
31080,B4Ba4Li4S12,mp-554076,BaLiBS3,"['Ba', 'Li', 'B', 'S']",24.0,-122.44404681,0.0026478145979815793,0.0,
15839,Ba4Cr4F24Li4,mp-560949,BaLiCrF6,"['Ba', 'Li', 'Cr', 'F']",36.0,-206.49349949,0.005950501091579241,0.0,
3986,Ba4Ge8Li4,mp-13140,BaLiGe2,"['Ba', 'Li', 'Ge']",16.0,-60.79225994,0.0,0.0,
13449,Ba1H3Li1,mp-23818,BaLiH3,"['Ba', 'Li', 'H']",5.0,-16.52385718,0.002318691563476527,0.0,
26840,Ba2Li2P2,mp-13277,BaLiP,"['Ba', 'Li', 'P']",6.0,-23.94318592,0.0034885216951496822,0.0,
470,Ba2Li2Sb2,mp-10485,BaLiSb,"['Ba', 'Li', 'Sb']",6.0,-21.58328181,0.002422572580566662,0.0,
425,Ba8F64Lu16,mp-1214962,BaLu2F8,"['Ba', 'Lu', 'F']",88.0,-570.1512402,0.00011996776457223746,-2.6645352591003757e-15,
25417,Ba2Lu4O20Si6,mp-1194557,BaLu2Si3O10,"['Ba', 'Lu', 'Si', 'O']",32.0,-255.94187885,0.0007669390136726406,0.0,
14704,Ba4Mg8O28Si8,mp-1019549,BaMg2Si2O7,"['Ba', 'Mg', 'Si', 'O']",48.0,-341.57462741,0.0,0.0,
15951,Ba1In3Mg1,mp-1227881,BaMgIn3,"['Ba', 'Mg', 'In']",5.0,-13.52634353,0.0,0.0,
14813,Ba4Mg4O28P8,mp-18343,BaMgP2O7,"['Ba', 'Mg', 'P', 'O']",44.0,-313.79909096,5.417888360170764e-14,5.417888360170764e-14,
13651,Ba4F28Mg4V4,mp-1047850,BaMgVF7,"['Ba', 'Mg', 'V', 'F']",40.0,-232.22532865,0.018845390899421055,0.0,
7222,Ba4Mn8O28Si8,mp-1196057,BaMn2Si2O7,"['Ba', 'Mn', 'Si', 'O']",48.0,-371.19844125,0.0002676881917338392,0.0,
19387,Ba4Mn8O32V8,mp-19507,BaMn2V2O8,"['Ba', 'Mn', 'V', 'O']",52.0,-395.64022023,-1.5987211554602254e-14,0.0,
24732,Ba2Mn6O24P6,mp-1204296,BaMn3(PO4)3,"['Ba', 'Mn', 'P', 'O']",38.0,-286.91413849,4.383445309663614e-05,0.0,
22628,Ba3Mn15O72S18,mp-1215056,BaMn5(SO4)6,"['Ba', 'Mn', 'S', 'O']",108.0,-732.48920982,0.0006464811588537955,0.0,
17012,Ba2Mn12O24,mp-1228093,BaMn6O12,"['Ba', 'Mn', 'O']",38.0,-275.16544475,0.0,0.0,
3624,Ba2Mn16O32,mp-1228782,BaMn8O16,"['Ba', 'Mn', 'O']",50.0,-361.99642634,2.842170943040401e-14,2.842170943040401e-14,
23346,Ba4H8Mn36O104V24,mp-1194843,BaMn9V6(HO13)2,"['Ba', 'Mn', 'V', 'H', 'O']",176.0,-1327.57261754,2.4158453015843406e-13,0.0,
19049,Ba4F20Mn4,mp-540958,BaMnF5,"['Ba', 'Mn', 'F']",28.0,-162.24132924,0.00010158807338189746,5.329070518200751e-15,
15060,Ba4Mn4N8,mp-1029775,BaMnN2,"['Ba', 'Mn', 'N']",16.0,-121.69318055,-3.552713678800501e-15,0.0,
13119,Ba4Mn4O12,mp-1205336,BaMnO3,"['Ba', 'Mn', 'O']",20.0,-138.42986298,0.0,0.0,
24764,Ba4F8Mn4O16P4,mp-1195656,BaMnP(O2F)2,"['Ba', 'Mn', 'P', 'O', 'F']",36.0,-248.43636272,0.00029736530813284645,0.0,
23989,Ba4Mn4O28P8,mp-18703,BaMnP2O7,"['Ba', 'Mn', 'P', 'O']",44.0,-328.62463104,1.300193181918985e-05,2.842170943040401e-14,
18677,Ba4Cl4F4Mn4O16P4,mp-1194882,BaMnPClO4F,"['Ba', 'Mn', 'P', 'Cl', 'O', 'F']",36.0,-240.75767218,0.00017138502821190116,0.0,
29890,Ba1Mo1O8P2,mp-1542939,BaMo(PO4)2,"['Ba', 'Mo', 'P', 'O']",12.0,-88.23810011,0.0,-2.842170943040401e-14,
4026,Ba2Mo4O28P8,mp-16802,BaMo2(P2O7)2,"['Ba', 'Mo', 'P', 'O']",42.0,-310.18695306,9.45535703067435e-08,0.0,
25570,Ba2Mo4O32P8,mp-555876,BaMo2(PO4)4,"['Ba', 'Mo', 'P', 'O']",46.0,-334.19607912,5.813160496082048e-05,2.842170943040401e-14,
20277,Ba2Mo4O24P4,mp-555338,BaMo2(PO6)2,"['Ba', 'Mo', 'P', 'O']",34.0,-243.69397468,0.000100985974265555,0.0,
21665,Ba2Mo4O28P6,mp-555195,BaMo2P3O14,"['Ba', 'Mo', 'P', 'O']",40.0,-289.16229407,9.27422656360477e-06,-2.842170943040401e-14,
29447,Ba2Mo4O22Se4,mp-554548,BaMo2Se2O11,"['Ba', 'Mo', 'Se', 'O']",32.0,-204.11197664,7.691713378932263e-05,0.0,
30967,Ba1Mo1O3,mp-19322,BaMoO3,"['Ba', 'Mo', 'O']",5.0,-34.92948854,0.04958670362109352,0.0,
27927,Ba2Mo2O8,mp-19276,BaMoO4,"['Ba', 'Mo', 'O']",12.0,-85.06756525,7.393363443952694e-05,0.0,
18358,Ba2N4,mp-1001,BaN2,"['Ba', 'N']",6.0,-40.25728227,0.0013828662955726045,0.0,
21709,Ba12Na12,mp-1247744,BaNa,"['Ba', 'Na']",24.0,-39.40194341,0.00022760180297831667,0.0,
22992,B18Ba2Na2O30,mp-17864,BaNa(B3O5)3,"['Ba', 'Na', 'B', 'O']",52.0,-407.15204404,7.590713341265598e-05,0.0,
1399,Ba4Na4O36P12,mp-13755,BaNa(PO3)3,"['Ba', 'Na', 'P', 'O']",56.0,-392.01477391,0.002138253630022291,0.0,
5473,Al8Ba2Na4O32Si8,mp-6875,BaNa2Al4(SiO4)4,"['Ba', 'Na', 'Al', 'Si', 'O']",54.0,-397.01397032,0.00014270276909744695,0.0,
9413,Ba1Mg1Na2O8P2,mp-861906,BaNa2Mg(PO4)2,"['Ba', 'Na', 'Mg', 'P', 'O']",14.0,-92.56103891,0.0,0.0,
11284,Ba4C4Na8Nd8O60Si16,mp-559586,BaNa2Nd2Si4CO15,"['Ba', 'Na', 'Nd', 'Si', 'C', 'O']",100.0,-753.9326651,0.001193075562492929,0.0,
12750,Ba2Ca14F6Na10O48P12,mp-693753,BaNa5Ca7P6(O8F)3,"['Ba', 'Na', 'Ca', 'P', 'O', 'F']",92.0,-618.48585468,0.0014996901290755815,-6.217248937900877e-15,
11888,Al8Ba8F48Na8,mp-15515,BaNaAlF6,"['Ba', 'Na', 'Al', 'F']",72.0,-401.34828146,0.00032566711371551094,0.0,
26262,B20Ba4Na4O36,mp-1019554,BaNaB5O9,"['Ba', 'Na', 'B', 'O']",64.0,-487.96891544,0.00017376082522346792,0.0,
5978,B2Ba2Na2O6,mp-6660,BaNaBO3,"['Ba', 'Na', 'B', 'O']",12.0,-79.66598629,0.00046861076169335547,-6.217248937900877e-15,
10434,Ba3Bi3Na3,mp-31235,BaNaBi,"['Ba', 'Na', 'Bi']",9.0,-28.25211491,0.0006337013384332124,0.0,
7,Ba2C8Ce4F2Na2O24,mp-542264,BaNaCe2C4O12F,"['Ba', 'Na', 'Ce', 'C', 'O', 'F']",42.0,-322.69219209,0.0038283663120033395,0.0,
19523,Ba4Cr8F36Na4,mp-556890,BaNaCr2F9,"['Ba', 'Na', 'Cr', 'F']",52.0,-300.4738244,0.00013468232420699167,-1.1546319456101628e-14,
11406,Ba8Cr8F48Na8,mp-1214564,BaNaCrF6,"['Ba', 'Na', 'Cr', 'F']",72.0,-406.09066763,2.220446049250313e-14,2.220446049250313e-14,
23868,Ba4Eu4Na4O36Si12,mp-1019735,BaNaEu(SiO3)3,"['Ba', 'Na', 'Eu', 'Si', 'O']",60.0,-465.47507752,0.019953147290364015,0.0,
21952,Ba8F48Fe8Na8,mp-1214635,BaNaFeF6,"['Ba', 'Na', 'Fe', 'F']",72.0,-381.21087964,0.0,0.0,
9062,Ba8F48Ga8Na8,mp-1214538,BaNaGaF6,"['Ba', 'Na', 'Ga', 'F']",72.0,-366.32731568,0.0,0.0,
18149,Ba1H6Ir1Na1,mp-1182061,BaNaH6Ir,"['Ba', 'Na', 'H', 'Ir']",9.0,-37.0511658,0.00018757143012138044,7.105427357601002e-15,
13664,Ba1Hg2Na1,mp-867147,BaNaHg2,"['Ba', 'Na', 'Hg']",4.0,-5.45950905,0.00013991317443839968,0.0,
24252,B12Ba2Li6Na2O24,mp-1019555,BaNaLi3(BO2)6,"['Ba', 'Na', 'Li', 'B', 'O']",46.0,-331.25873568,0.006544007168818311,0.0,
28648,Ba8Na8Nd8O56Si16,mp-559384,BaNaNdSi2O7,"['Ba', 'Na', 'Nd', 'Si', 'O']",96.0,-711.19771681,0.0007097624364691413,-1.7763568394002505e-15,
5537,Ba3Na3P3,mp-9732,BaNaP,"['Ba', 'Na', 'P']",9.0,-32.89732103,0.0007229596929256843,3.1086244689504383e-15,
20708,Ba2H6N6Na2O12P6,mp-866302,BaNaP3H3(NO2)3,"['Ba', 'Na', 'P', 'H', 'N', 'O']",34.0,-224.68127331,0.0017652230457265716,-2.4868995751603507e-14,
4986,Ba2Na2O8P2,mp-1227883,BaNaPO4,"['Ba', 'Na', 'P', 'O']",14.0,-93.5016626,0.0009364360770085511,0.0,
24354,B4Ba2Na2O12Sc2,mp-1182298,BaNaSc(BO3)2,"['Ba', 'Na', 'Sc', 'B', 'O']",22.0,-166.49278991,0.0,0.0,
11608,Ba8F48Na8V8,mp-1214563,BaNaVF6,"['Ba', 'Na', 'V', 'F']",72.0,-408.29365082,0.0002543902631284567,0.0,
7102,Ba4F28Na4Zr4,mp-560732,BaNaZrF7,"['Ba', 'Na', 'Zr', 'F']",40.0,-244.93430257,0.00019983321093786088,0.0,
8681,Ba2Nb20O38Si2,mp-555764,BaNb10SiO19,"['Ba', 'Nb', 'Si', 'O']",62.0,-556.69671843,8.132681450945256e-06,-6.750155989720952e-14,
4388,Ba2Fe4Nb4O48P12,mp-705895,BaNb2Fe2(PO4)6,"['Ba', 'Nb', 'Fe', 'P', 'O']",70.0,-531.75698577,0.0014705506629457687,0.0,
3801,Ba2Nb4O12,mp-28150,BaNb2O6,"['Ba', 'Nb', 'O']",18.0,-153.26448347,0.002907670177945576,-7.105427357601002e-15,
20207,Ba1Nb2O11V2,mp-1188841,BaNb2V2O11,"['Ba', 'Nb', 'V', 'O']",16.0,-129.63812538,0.0005873328173837677,0.0,
22291,Ba1Nb4O6,mp-505517,BaNb4O6,"['Ba', 'Nb', 'O']",11.0,-97.8999888,0.00015576692114294133,0.0,
24230,Ba1Nb5O8,mp-761128,BaNb5O8,"['Ba', 'Nb', 'O']",14.0,-125.67566566,0.0,-3.375077994860476e-14,
8149,Ba1Nb7O9,mp-505078,BaNb7O9,"['Ba', 'Nb', 'O']",17.0,-154.82252749,0.0013430643960639088,0.0,
19648,Ba4Nb32O56,mp-757688,BaNb8O14,"['Ba', 'Nb', 'O']",92.0,-832.98301948,0.0005333682116166472,0.0,
27957,Ba1Nb1O3,mp-3020,BaNbO3,"['Ba', 'Nb', 'O']",5.0,-40.6969358,0.000466673007842644,3.019806626980426e-14,
9404,Ba8Nb8O64P8Te8,mp-560794,BaNbTePO8,"['Ba', 'Nb', 'Te', 'P', 'O']",96.0,-700.66045619,2.7807763673948216e-06,-7.105427357601002e-15,
20887,Ba4Nd4S24Sn8,mp-1195589,BaNd(SnS3)2,"['Ba', 'Nd', 'Sn', 'S']",40.0,-205.07625269,0.0001987883408203217,0.0,
30503,Ba4Be4Nd8O20,mp-17836,BaNd2BeO5,"['Ba', 'Nd', 'Be', 'O']",36.0,-269.72056992,0.0,0.0,
20342,Ba1Co1Nd2O5,mp-19118,BaNd2CoO5,"['Ba', 'Nd', 'Co', 'O']",9.0,-65.5035215,0.0041191727973073355,0.0,
27204,Ba2Mn2Nd4S10,mp-16456,BaNd2MnS5,"['Ba', 'Nd', 'Mn', 'S']",18.0,-114.21391629,9.087627713810775e-05,0.0,
17463,Ba1Nd2Ni1O5,mp-18763,BaNd2NiO5,"['Ba', 'Nd', 'Ni', 'O']",9.0,-63.08990328,4.147447699587303e-05,0.0,
8537,Ba4Nd8O16,mp-2892,BaNd2O4,"['Ba', 'Nd', 'O']",28.0,-212.37213261,0.0014867538839284933,0.0,
11659,Ba2Nd4O10Pd2,mp-8514,BaNd2PdO5,"['Ba', 'Nd', 'Pd', 'O']",18.0,-129.40822785,1.3322676295501878e-14,1.3322676295501878e-14,
19663,Ba2Nd4O10Pt2,mp-556525,BaNd2PtO5,"['Ba', 'Nd', 'Pt', 'O']",18.0,-131.19914527,1.4831191514907971e-05,1.092459456231154e-13,
23668,Ba4Nd8O28Sc8,mp-1198101,BaNd2Sc2O7,"['Ba', 'Nd', 'Sc', 'O']",48.0,-396.04907315,0.00010027759602770914,0.0,
23717,Ag2Ba2Nd2S6,mp-1095616,BaNdAgS3,"['Ba', 'Nd', 'Ag', 'S']",12.0,-63.25743232,0.00044856704264351066,-5.329070518200751e-15,
22184,B2Ba2Cu2Nd2O10,mp-10350,BaNdCuBO5,"['Ba', 'Nd', 'Cu', 'B', 'O']",18.0,-128.66287708,0.005930611802655861,0.0,
7350,Ba4Cu4Nd4S12,mp-1191985,BaNdCuS3,"['Ba', 'Nd', 'Cu', 'S']",24.0,-132.19897948,0.033131526183268534,0.0,
3880,Ba2Cu2Nd2Te6,mp-1214402,BaNdCuTe3,"['Ba', 'Nd', 'Cu', 'Te']",12.0,-55.41631504,0.0026009566479494595,0.0,
3525,Ba1Mn2Nd1O5,mp-546665,BaNdMn2O5,"['Ba', 'Nd', 'Mn', 'O']",9.0,-67.79231503,0.0,-3.019806626980426e-14,
18308,As4Ba2Ni4O16,mp-19388,BaNi2(AsO4)2,"['Ba', 'Ni', 'As', 'O']",26.0,-154.44483766,0.0,0.0,
22961,Ba1Ni2O8P2,mp-18909,BaNi2(PO4)2,"['Ba', 'Ni', 'P', 'O']",13.0,-86.30260796,0.0,0.0,
4224,As10Ba2Ni18,mp-540991,BaNi9As5,"['Ba', 'Ni', 'As']",30.0,-168.33561486,0.00036170681510228064,0.0,
21914,Ba2Ni18P10,mp-3202,BaNi9P5,"['Ba', 'Ni', 'P']",30.0,-182.03935849,0.00024342956510370328,0.0,
25283,Ba1I1Ni1O6,mp-1147557,BaNiIO6,"['Ba', 'Ni', 'I', 'O']",9.0,-45.98822057,0.010611824416232096,-1.0658141036401503e-14,
12578,Ba12N12Ni12,mp-21653,BaNiN,"['Ba', 'Ni', 'N']",36.0,-209.30002326,0.00012280088324700955,0.0,
11847,Ba2Ni2O6,mp-19241,BaNiO3,"['Ba', 'Ni', 'O']",10.0,-54.08140503,0.0,0.0,
503,Ba4Ni4O28P8,mp-1214404,BaNiP2O7,"['Ba', 'Ni', 'P', 'O']",44.0,-303.83142616,0.0,0.0,
4725,Ba1Ni1Sn3,mp-11879,BaNiSn3,"['Ba', 'Ni', 'Sn']",5.0,-22.10447525,0.0,0.0,
12307,Ba2H6Np2O12,mp-1190517,BaNp(HO2)3,"['Ba', 'Np', 'H', 'O']",22.0,-155.10651936,0.0002464732936662273,0.0,
12604,Ba2Np2O16P4,mp-1191675,BaNp(PO4)2,"['Ba', 'Np', 'P', 'O']",24.0,-196.14236251,0.0011751928613286111,0.0,
7508,Ba1Np1O3,mp-8558,BaNpO3,"['Ba', 'Np', 'O']",5.0,-44.53430595,0.021134275087892007,0.0,
5157,Ba4Np4O16,mp-1214391,BaNpO4,"['Ba', 'Np', 'O']",24.0,-210.80824625,0.0002689754231770536,0.0,
28904,Ba1O1,mp-1342,BaO,"['Ba', 'O']",2.0,-11.82722136,0.0,0.0,
21163,Ba2O20,mp-1182576,BaO10,"['Ba', 'O']",22.0,-112.81170506,0.016379826069114145,0.0,
11478,Ba1O2,mp-1105,BaO2,"['Ba', 'O']",3.0,-17.39547494,7.880310872288021e-06,0.0,
5801,Ba6P12,mp-1105095,BaP2,"['Ba', 'P']",18.0,-90.95417313,0.00027958319118948083,0.0,
25295,Ba2H8O8P4,mp-642646,BaP2(HO)4,"['Ba', 'P', 'H', 'O']",22.0,-125.20305309,0.03435398774146936,1.0658141036401503e-14,
24421,Ba4H16O32P8,mp-706400,BaP2(HO2)4,"['Ba', 'P', 'H', 'O']",60.0,-381.09560872,0.0034084988723961374,0.0,
2884,Ba4O28P8Pb4,mp-505234,BaP2PbO7,"['Ba', 'P', 'Pb', 'O']",44.0,-309.58553396,0.00010471357776964396,0.0,
17983,Ba4O28P8Pd4,mp-1214414,BaP2PdO7,"['Ba', 'P', 'Pd', 'O']",44.0,-305.89008579,0.0006695978568895811,0.0,
23043,Ba2P6,mp-7808,BaP3,"['Ba', 'P']",8.0,-41.64754935,0.0,0.0,
17723,Ba4P12Pt8,mp-28373,BaP3Pt2,"['Ba', 'P', 'Pt']",24.0,-142.79056686,0.0,0.0,
3901,Ba4O44P16,mp-779518,BaP4O11,"['Ba', 'P', 'O']",64.0,-459.29404642,0.002466002897949515,0.0,
749,Au2Ba2P2,mp-985439,BaPAu,"['Ba', 'P', 'Au']",6.0,-26.46715413,0.0006089831958009384,0.0,
22606,Ba4Ir4P4,mp-9078,BaPIr,"['Ba', 'P', 'Ir']",12.0,-75.67789755,0.0018746772298179337,0.0,
599,Ba8F8O24P8,mp-1197491,BaPO3F,"['Ba', 'P', 'O', 'F']",48.0,-330.20894554,8.199090657523556e-05,0.0,
29282,Ba4P4Pd4,mp-1227860,BaPPd,"['Ba', 'P', 'Pd']",12.0,-61.45151458,0.019024900417477397,0.0,
29339,Ba4P4Pt4,mp-21236,BaPPt,"['Ba', 'P', 'Pt']",12.0,-66.57572923,0.0,0.0,
8785,Ba4P4S12,mp-11006,BaPS3,"['Ba', 'P', 'S']",20.0,-102.43183129,1.6850117185995828e-06,0.0,
17370,Ba4P4Se12,mp-11008,BaPSe3,"['Ba', 'P', 'Se']",20.0,-91.50580795,0.0,0.0,
69,Ba1O3Pa1,mp-8557,BaPaO3,"['Ba', 'Pa', 'O']",5.0,-42.06592061,0.0878318523990238,0.0,
8453,Ba2Pb2,mp-20136,BaPb,"['Ba', 'Pb']",4.0,-13.61613229,0.003308407755127085,0.0,
3431,Ba3Pb9,mp-21446,BaPb3,"['Ba', 'Pb']",12.0,-43.64164599,0.004879428099771932,0.0,
15902,Ba2O8Pb6,mp-1214389,BaPb3O4,"['Ba', 'Pb', 'O']",16.0,-89.71167873,0.0,0.0,
15777,Ba1F6Pb1,mp-19799,BaPbF6,"['Ba', 'Pb', 'F']",8.0,-38.58727275,0.003525640594483015,0.0,
28165,Ba2O6Pb2,mp-22230,BaPbO3,"['Ba', 'Pb', 'O']",10.0,-57.91751158,0.0015652757158193253,0.0,
98,Ba2Pd2,mp-1008505,BaPd,"['Ba', 'Pd']",4.0,-16.37222405,0.0037891374938965328,0.0,
13300,Ba1I4O12Pd1,mp-1106270,BaPd(IO3)4,"['Ba', 'Pd', 'I', 'O']",18.0,-85.21627034,0.00045583343315946934,0.0,
31088,Ba2O12Pd2Se4,mp-1205352,BaPd(SeO3)2,"['Ba', 'Pd', 'Se', 'O']",20.0,-113.33764253,0.001678829310547414,0.0,
28404,Ba2Pd4,mp-1687,BaPd2,"['Ba', 'Pd']",6.0,-28.02422061,0.0,0.0,
14502,Ba1Pd5,mp-2606,BaPd5,"['Ba', 'Pd']",6.0,-29.85297545,0.0,0.0,
15049,Ba2F8Pd2,mp-12623,BaPdF4,"['Ba', 'Pd', 'F']",12.0,-60.03407234,-1.865174681370263e-14,-4.440892098500626e-15,
16266,Ba2Pd2S4,mp-4009,BaPdS2,"['Ba', 'Pd', 'S']",8.0,-40.50406741,0.0,0.0,
24231,Ba4Pr4S24Sn8,mp-1194578,BaPr(SnS3)2,"['Ba', 'Pr', 'Sn', 'S']",40.0,-205.14495372,0.0008208164238281412,0.0,
8986,Ba2Mn2Pr4S10,mp-16124,BaPr2MnS5,"['Ba', 'Pr', 'Mn', 'S']",18.0,-114.37817875,1.1546319456101628e-14,0.0,
11197,Ba1Ni1O5Pr2,mp-18802,BaPr2NiO5,"['Ba', 'Pr', 'Ni', 'O']",9.0,-62.88188688,0.0,0.0,
1400,Ba4O16Pr8,mp-17412,BaPr2O4,"['Ba', 'Pr', 'O']",28.0,-211.4515702,0.0025766554548001253,0.0,
889,Ba2O10Pd2Pr4,mp-9759,BaPr2PdO5,"['Ba', 'Pr', 'Pd', 'O']",18.0,-129.04661374,1.3322676295501878e-14,1.3322676295501878e-14,
21756,Ba4O28Pr8Sc8,mp-1195909,BaPr2Sc2O7,"['Ba', 'Pr', 'Sc', 'O']",48.0,-395.5059034,3.770789387935736e-05,0.0,
1638,Ba2Cu2Pr2Te6,mp-1214381,BaPrCuTe3,"['Ba', 'Pr', 'Cu', 'Te']",12.0,-55.43144003,0.0037681982598867236,0.0,
21849,Ba1Mn2O5Pr1,mp-549776,BaPrMn2O5,"['Ba', 'Pr', 'Mn', 'O']",9.0,-67.70802196,0.0,0.0,
26883,Ba2Pt2,mp-31498,BaPt,"['Ba', 'Pt']",4.0,-18.97606449,0.0012026313146975554,0.0,
3600,Ba2Pt4,mp-747,BaPt2,"['Ba', 'Pt']",6.0,-32.47947324,0.0010185031721912097,0.0,
19915,Ba12Pt24S36,mp-558588,BaPt2S3,"['Ba', 'Pt', 'S']",72.0,-388.1305341,0.0004856171549434407,-5.329070518200751e-15,
954,Ba1Pt5,mp-811,BaPt5,"['Ba', 'Pt']",6.0,-35.11389427,0.0007249835237628233,0.0,
9551,Ba4O12Pu4,mp-505025,BaPuO3,"['Ba', 'Pu', 'O']",20.0,-184.64039964,0.0003974801582042886,0.0,
4572,Ba4H8O36Re8,mp-695984,BaRe2H2O9,"['Ba', 'Re', 'H', 'O']",56.0,-414.10917505,0.0032388828613276743,0.0,
21105,Ba4O36Re8,mp-1214641,BaRe2O9,"['Ba', 'Re', 'O']",48.0,-363.5884139,0.16670405217794837,-1.4210854715202004e-14,
27360,Ba4N12Re4,mp-989637,BaReN3,"['Ba', 'Re', 'N']",20.0,-167.1515093,0.0,1.5987211554602254e-14,
26921,Ba2Rh4,mp-568430,BaRh2,"['Ba', 'Rh']",6.0,-33.84048079,0.024435519112141257,0.0,
8122,Ba1F6Rh1,mp-7660,BaRhF6,"['Ba', 'Rh', 'F']",8.0,-40.2945413,0.00010566589965854689,0.0,
17808,Ba3O9Ru3,mp-5773,BaRuO3,"['Ba', 'Ru', 'O']",15.0,-104.75206664,0.00011746488541053424,-6.217248937900877e-15,
5166,Ba6O30Ru6,mp-733954,BaRuO5,"['Ba', 'Ru', 'O']",42.0,-270.04412913,0.0,0.0,
13819,Ba1S1,mp-1500,BaS,"['Ba', 'S']",2.0,-10.2125031,7.468291015655382e-05,0.0,
23375,Ba2S4,mp-684,BaS2,"['Ba', 'S']",6.0,-28.89278104,0.0,0.0,
1958,Ba2S6,mp-239,BaS3,"['Ba', 'S']",8.0,-37.11867656,0.0,0.0,
87,Ba2O26S8,mp-1019557,BaS4O13,"['Ba', 'S', 'O']",36.0,-219.82304078,2.1263733724019573e-05,0.0,
15256,Ba4O16S4,mp-3164,BaSO4,"['Ba', 'S', 'O']",24.0,-157.37156884,2.640089517669253e-06,0.0,
16349,Ba6Sb12,mp-2196,BaSb2,"['Ba', 'Sb']",18.0,-74.0449118,6.884788954053533e-05,0.0,
15329,Ba1F12Sb2,mp-554765,BaSb2F12,"['Ba', 'Sb', 'F']",15.0,-72.4778723,0.007443824205728866,0.0,
11391,Ba2Pd2Sb4,mp-9768,BaSb2Pd,"['Ba', 'Sb', 'Pd']",8.0,-37.19522669,0.0022582543261719934,0.0,
7509,Au2Ba2Sb2,mp-568895,BaSbAu,"['Ba', 'Sb', 'Au']",6.0,-24.19656181,0.0008053492732749135,0.0,
30,Ba2Cl2O4Sb2,mp-545500,BaSbClO2,"['Ba', 'Sb', 'Cl', 'O']",10.0,-56.62367645,3.258388183624561e-05,0.0,
13758,Ba4F20Sb4,mp-18099,BaSbF5,"['Ba', 'Sb', 'F']",28.0,-147.67598403,0.0,0.0,
17027,Ba1Pt1Sb1,mp-8606,BaSbPt,"['Ba', 'Sb', 'Pt']",3.0,-14.9402158,2.9016271971826768e-05,0.0,
10693,Ba8Sb8Te24,mp-18291,BaSbTe3,"['Ba', 'Sb', 'Te']",40.0,-155.34372108,0.03851024143261661,0.0,
4355,Ba6O24Sc12,mp-3564,BaSc2O4,"['Ba', 'Sc', 'O']",42.0,-344.73180115,-3.552713678800501e-15,-3.552713678800501e-15,
28192,Ba2O20Sc4Si6,mp-1194834,BaSc2Si3O10,"['Ba', 'Sc', 'Si', 'O']",32.0,-260.4855151,0.00023491020507826477,0.0,
9905,Ag8Ba8S48Sc24,mp-554796,BaSc3AgS6,"['Ba', 'Sc', 'Ag', 'S']",88.0,-541.14943818,9.230775924073953e-06,-1.1546319456101628e-14,
25704,Ba2Cu2S6Sc2,mp-1103664,BaScCuS3,"['Ba', 'Sc', 'Cu', 'S']",12.0,-68.97302789,0.0008900911979168313,0.0,
8322,Ba1Se1,mp-1253,BaSe,"['Ba', 'Se']",2.0,-9.51040998,0.0,0.0,
23424,Ba2Se4,mp-7547,BaSe2,"['Ba', 'Se']",6.0,-26.1832419,0.0003403748616541691,0.0,
3849,Ba4O20Se8,mp-28536,BaSe2O5,"['Ba', 'Se', 'O']",32.0,-182.24067354,4.3191376958517935e-05,5.329070518200751e-15,
13747,Ba2Se6,mp-7548,BaSe3,"['Ba', 'Se']",8.0,-33.11164065,-3.552713678800501e-15,0.0,
11107,Ba2O6Se2,mp-6989,BaSeO3,"['Ba', 'Se', 'O']",10.0,-59.57633006,0.00015791502050799266,0.0,
15792,Ba4O16Se4,mp-12010,BaSeO4,"['Ba', 'Se', 'O']",24.0,-141.58332543,4.750963542576869e-06,0.0,
15971,Ba2Si2,mp-2499,BaSi,"['Ba', 'Si']",4.0,-16.37450501,0.002309042604980327,0.0,
1696,Ba2Pt10Si24,mp-1214345,BaSi12Pt5,"['Ba', 'Si', 'Pt']",36.0,-212.51725839,0.0,0.0,
245,Ba8Si16,mp-1477,BaSi2,"['Ba', 'Si']",24.0,-110.80232605,0.00027952574870226954,4.440892098500626e-15,
30593,B8Ba4O32Si8,mp-555387,BaSi2(BO4)2,"['Ba', 'Si', 'B', 'O']",52.0,-407.16310626,5.9052729868724896e-05,0.0,
3732,Ba4N8O8Si8,mp-6764,BaSi2(NO)2,"['Ba', 'Si', 'N', 'O']",28.0,-214.53671572,5.311007260644374e-07,0.0,
21411,Ba4O20Si8,mp-3031,BaSi2O5,"['Ba', 'Si', 'O']",32.0,-243.84074817,7.105427357601002e-15,7.105427357601002e-15,
25373,Ba1Pd1Si3,mp-1070137,BaSi3Pd,"['Ba', 'Si', 'Pd']",5.0,-25.76879956,0.03256562958056186,4.440892098500626e-15,
24111,Ba2O18Si6Sn2,mp-18502,BaSi3SnO9,"['Ba', 'Si', 'Sn', 'O']",28.0,-207.70310602,0.0,0.0,
12938,Ba1N8O1Si6,mp-557414,BaSi6N8O,"['Ba', 'Si', 'N', 'O']",16.0,-127.44957226,2.4444931641554035e-05,0.0,
1642,Ba2N20Si14,mp-29703,BaSi7N10,"['Ba', 'Si', 'N']",36.0,-287.65159763,0.0,0.0,
15646,Ba2Rh4Si18,mp-1190822,BaSi9Rh2,"['Ba', 'Si', 'Rh']",24.0,-140.03818725,3.408040364583087e-06,0.0,
13263,Au1Ba1Si1,mp-1227729,BaSiAu,"['Ba', 'Si', 'Au']",3.0,-12.35545061,0.06662154213650062,0.0,
19041,Ba1F6Si1,mp-5588,BaSiF6,"['Ba', 'Si', 'F']",8.0,-46.76936762,0.0,0.0,
4574,Ba4N8Si4,mp-3777,BaSiN2,"['Ba', 'Si', 'N']",16.0,-114.09515693,1.223319580034854e-05,0.0,
10022,Ba6O18Si6,mp-776084,BaSiO3,"['Ba', 'Si', 'O']",30.0,-222.88345209,9.557486458344755e-05,0.0,