,Composition,MaterialId,Reduced Formula,Elements,NSites,Corrected Energy,Decomposition Energy Per Atom All,Decomposition Energy Per Atom MP,Directory
1922,Ag2Al1Er1,mp-977535,ErAlAg2,"['Er', 'Al', 'Ag']",4.0,-15.32154634,0.022085020936686295,0.0,
11398,Al4Au4Er4,mp-1102155,ErAlAu,"['Er', 'Al', 'Au']",12.0,-55.87412496,0.007307281436632174,0.0,
19014,Al4B16Er4,mp-1213107,ErAlB4,"['Er', 'Al', 'B']",24.0,-152.15886745,0.0,0.0,
2174,Al3Cu3Er3,mp-1078592,ErAlCu,"['Er', 'Al', 'Cu']",9.0,-41.4061177,0.0,0.0,
18574,Al4Er4Fe4,mp-1225649,ErAlFe,"['Er', 'Al', 'Fe']",12.0,-70.9763714,0.01748008591918815,-2.6645352591003757e-15,
21676,Al3Er3Ni3,mp-1078826,ErAlNi,"['Er', 'Al', 'Ni']",9.0,-47.86129515,0.005098827870009259,0.0,
6069,Al1Er1Ni4,mp-1225548,ErAlNi4,"['Er', 'Al', 'Ni']",6.0,-34.64673272,5.329070518200751e-15,5.329070518200751e-15,
29859,Al4Er4Pd4,mp-1102820,ErAlPd,"['Er', 'Al', 'Pd']",12.0,-64.6874588,0.0,0.0,
5882,Al4Er4Pt4,mp-1102457,ErAlPt,"['Er', 'Al', 'Pt']",12.0,-71.56247367,0.0007664051855469367,0.0,
30692,Al2Er2Si2,mp-1206326,ErAlSi,"['Er', 'Al', 'Si']",6.0,-31.15241003,0.0,0.0,
5320,Al2Er2Zn2,mp-1072798,ErAlZn,"['Er', 'Al', 'Zn']",6.0,-21.84227967,0.014628688931478173,0.0,
2018,As1Er1,mp-1688,ErAs,"['Er', 'As']",2.0,-12.25254439,0.0026097363049313316,0.0,
22359,As2Er2O8,mp-772156,ErAsO4,"['Er', 'As', 'O']",12.0,-86.79538297,2.025054687493366e-05,7.105427357601002e-15,
30226,As4Er4Pd4,mp-13271,ErAsPd,"['Er', 'As', 'Pd']",12.0,-71.88075802,0.0,0.0,
11907,As4Er4S4,mp-1095614,ErAsS,"['Er', 'As', 'S']",12.0,-71.86575387,0.0002524342545564551,0.0,
22257,As4Er4Se4,mp-1213048,ErAsSe,"['Er', 'As', 'Se']",12.0,-67.80865301,0.0007783868619792855,0.0,
22248,Au2Er2,mp-11243,ErAu,"['Er', 'Au']",4.0,-19.28189271,0.0,0.0,
29774,Au2Er1,mp-2466,ErAu2,"['Er', 'Au']",3.0,-13.75628622,0.0025976246443679685,0.0,
13476,Au6Er2,mp-1080756,ErAu3,"['Er', 'Au']",8.0,-34.56195986,0.0022409412670896245,0.0,
31452,Au4Er1,mp-1070583,ErAu4,"['Er', 'Au']",5.0,-20.66896124,0.0016470525371090616,0.0,
23960,B12Er1,mp-1104598,ErB12,"['Er', 'B']",13.0,-87.99031872,0.0,0.0,
14217,B2Er1,mp-1774,ErB2,"['Er', 'B']",3.0,-19.79283819,9.225471995222279e-07,0.0,
23741,B2Er1Ir3,mp-5197,ErB2Ir3,"['Er', 'B', 'Ir']",6.0,-48.61929316,0.002250542735261263,0.0,
17530,B8Er4Os4,mp-1189333,ErB2Os,"['Er', 'B', 'Os']",16.0,-126.32638483,0.0004883230029300023,0.0,
28708,B8Er4Ru4,mp-1181423,ErB2Ru,"['Er', 'B', 'Ru']",16.0,-118.99708611,0.0005960127783204427,0.0,
22400,B2Er1Ru3,mp-3093,ErB2Ru3,"['Er', 'B', 'Ru']",6.0,-48.64005296,0.0,0.0,
23100,B6Er2Mo2,mp-5426,ErB3Mo,"['Er', 'B', 'Mo']",10.0,-77.30199435,0.0003173801855469449,0.0,
12442,B16Er4,mp-2847,ErB4,"['Er', 'B']",20.0,-136.85771502,0.0007582004160155975,0.0,
4871,B16Er4Mo4,mp-1190816,ErB4Mo,"['Er', 'B', 'Mo']",24.0,-183.83339385,0.00011615794270802837,0.0,
5514,B16Er4Os4,mp-1191929,ErB4Os,"['Er', 'B', 'Os']",24.0,-184.31544657,0.0,0.0,
640,B16Er4Rh4,mp-13342,ErB4Rh,"['Er', 'B', 'Rh']",24.0,-169.58633836,0.0,0.0,
961,B16Er4Ru4,mp-1191359,ErB4Ru,"['Er', 'B', 'Ru']",24.0,-177.80729517,0.0,0.0,
432,B16Er4W4,mp-1192093,ErB4W,"['Er', 'B', 'W']",24.0,-191.49499338,5.474971028540665e-05,0.0,
25124,B28Er4Mo12,mp-1213140,ErB7Mo3,"['Er', 'B', 'Mo']",44.0,-360.33129181,0.0,0.0,
4435,B6Er6O18,mp-1194043,ErBO3,"['Er', 'B', 'O']",30.0,-251.19742026,3.239432812485177e-05,0.0,
8212,B1Er1Pt1Rh2,mp-1225493,ErBPtRh2,"['Er', 'B', 'Pt', 'Rh']",5.0,-36.41922918,2.333514257824021e-05,0.0,
9878,B1Er1Rh3,mp-3769,ErBRh3,"['Er', 'B', 'Rh']",5.0,-37.41151457,0.0,0.0,
19193,Be26Er2,mp-1193092,ErBe13,"['Er', 'Be']",28.0,-111.57012109,0.004783382004743153,0.0,
23829,Bi1Er1,mp-23245,ErBi,"['Er', 'Bi']",2.0,-10.06444925,0.000412494293213328,0.0,
7469,Bi2Br1Er1O4,mp-546621,ErBi2BrO4,"['Er', 'Bi', 'Br', 'O']",8.0,-49.88432343,2.255953124929988e-05,0.0,
4352,Bi2Cl1Er1O4,mp-549709,ErBi2ClO4,"['Er', 'Bi', 'Cl', 'O']",8.0,-50.43084836,0.00022533393676749114,0.0,
20002,Bi2Er1I1O4,mp-551250,ErBi2IO4,"['Er', 'Bi', 'I', 'O']",8.0,-49.19425644,0.0,0.0,
30484,Bi1Er1Pd1,mp-1206953,ErBiPd,"['Er', 'Bi', 'Pd']",3.0,-16.41008168,0.0,0.0,
3823,Bi1Er1Pt1,mp-30454,ErBiPt,"['Er', 'Bi', 'Pt']",3.0,-17.60338554,0.0009410870898429735,0.0,
29025,Bi3Er3Rh3,mp-1205914,ErBiRh,"['Er', 'Bi', 'Rh']",9.0,-54.061834,0.013044182630751244,0.0,
30131,Br2Er2O2,mp-1206859,ErBrO,"['Er', 'Br', 'O']",6.0,-39.99270851,0.008644595053710624,0.0,
13359,Cd1Er1,mp-867,ErCd,"['Er', 'Cd']",2.0,-6.12493333,6.632119140537185e-06,0.0,
15616,Cd2Er1,mp-11296,ErCd2,"['Er', 'Cd']",3.0,-7.29361502,0.0016769844018553748,0.0,
10822,Cd6Er2,mp-7303,ErCd3,"['Er', 'Cd']",8.0,-16.73968395,0.0,0.0,
30678,Cd72Er12,mp-1227922,ErCd6,"['Er', 'Cd']",84.0,-134.25585829,0.0,0.0,
498,Ag2Cd1Er1,mp-977378,ErCdAg2,"['Er', 'Cd', 'Ag']",4.0,-12.28916171,0.0,-8.881784197001252e-16,
1508,Au3Cd3Er3,mp-1206166,ErCdAu,"['Er', 'Cd', 'Au']",9.0,-32.08381656,0.013727820373263366,0.0,
17490,Au2Cd1Er1,mp-1184163,ErCdAu2,"['Er', 'Cd', 'Au']",4.0,-14.72978495,0.0,0.0,
3593,Cd1Cu4Er1,mp-12008,ErCdCu4,"['Er', 'Cd', 'Cu']",6.0,-23.39003933,0.00572556169921512,-3.552713678800501e-15,
22402,Cd3Er3Ga3,mp-1078684,ErCdGa,"['Er', 'Cd', 'Ga']",9.0,-30.01645046,0.0003103089284905991,0.0,
19157,Cd1Er1Hg2,mp-1184161,ErCdHg2,"['Er', 'Cd', 'Hg']",4.0,-7.47947566,0.0006345105981444554,0.0,
993,Cd1Er1Ni4,mp-1072598,ErCdNi4,"['Er', 'Cd', 'Ni']",6.0,-30.81192558,0.0001348373136353942,0.0,
4924,Cd1Er1Pd2,mp-863738,ErCdPd2,"['Er', 'Cd', 'Pd']",4.0,-18.87230589,0.005133845692192551,0.0,
29376,Cd1Er1Rh2,mp-863739,ErCdRh2,"['Er', 'Cd', 'Rh']",4.0,-22.60281162,0.004395056425781085,0.0,
25810,Cl6Er2,mp-863029,ErCl3,"['Er', 'Cl']",8.0,-37.89502729,0.08032535080444347,0.0,
303,Cl2Er2O2,mp-755689,ErClO,"['Er', 'Cl', 'O']",6.0,-41.30645955,0.04333672823893142,0.0,
5950,Co4Er2,mp-537,ErCo2,"['Er', 'Co']",6.0,-39.03064482,0.0,0.0,
13707,Co9Er3,mp-411,ErCo3,"['Er', 'Co']",12.0,-80.14974239,0.0,0.0,
824,B2Co3Er1,mp-5353,ErCo3B2,"['Er', 'Co', 'B']",6.0,-42.36683259,0.0021470626367188217,0.0,
29307,Co18Er6P12,mp-1197872,ErCo3P2,"['Er', 'Co', 'P']",36.0,-254.43457877,5.444239691776431e-05,0.0,
11384,Co6Er2Si4,mp-1103425,ErCo3Si2,"['Er', 'Co', 'Si']",12.0,-82.25334243,0.0013385448551437307,0.0,
210,Co20Er4P12,mp-1195740,ErCo5P3,"['Er', 'Co', 'P']",36.0,-256.05586758,0.00012998041666723026,0.0,
20674,B16Co4Er4,mp-1213100,ErCoB4,"['Er', 'Co', 'B']",24.0,-168.33450058,0.0,0.0,
2689,C2Co2Er2,mp-8475,ErCoC,"['Er', 'Co', 'C']",6.0,-43.84928371,0.0,0.0,
28299,C2Co1Er1,mp-13501,ErCoC2,"['Er', 'Co', 'C']",4.0,-31.56559732,1.8650194092195704e-05,0.0,
23830,Co4Er4Ge4,mp-1095692,ErCoGe,"['Er', 'Co', 'Ge']",12.0,-73.30094394,0.0,0.0,
17834,Co4Er4O12,mp-562779,ErCoO3,"['Er', 'Co', 'O']",20.0,-144.44661893,0.028904806929309856,-5.684341886080802e-14,
26571,Co4Er4Si4,mp-1102621,ErCoSi,"['Er', 'Co', 'Si']",12.0,-77.37770713,0.011524594025065227,0.0,
2614,Co2Er2Si4,mp-3128,ErCoSi2,"['Er', 'Co', 'Si']",8.0,-51.2861091,2.657340169598399e-05,0.0,
14694,Co4Er4Sn4,mp-11851,ErCoSn,"['Er', 'Co', 'Sn']",12.0,-68.64151868,0.0,0.0,
16231,C1Cr2Er1Si2,mp-1206309,ErCr2Si2C,"['Er', 'Cr', 'Si', 'C']",6.0,-46.67639044,0.005539201776433522,0.0,
12470,B16Cr4Er4,mp-985700,ErCrB4,"['Er', 'Cr', 'B']",24.0,-180.1500696,0.007002537215169191,0.0,
13851,Cr8Er8H8O40,mp-728095,ErCrHO5,"['Er', 'Cr', 'H', 'O']",64.0,-448.27728387,0.0,0.0,
155,Cr4Er4O12,mp-19063,ErCrO3,"['Er', 'Cr', 'O']",20.0,-164.75029864,0.0,0.0,
11859,Cr2Er2O8,mp-19240,ErCrO4,"['Er', 'Cr', 'O']",12.0,-91.9434884,0.022900597063081563,0.0,
16273,Cr2Er2O12Te2,mp-1105511,ErCrTeO6,"['Er', 'Cr', 'Te', 'O']",18.0,-127.72910318,2.7789641927178366e-05,0.0,
7730,Cu1Er1,mp-1955,ErCu,"['Er', 'Cu']",2.0,-9.2133767,0.0047685210327150784,0.0,
1867,Cu4Er2,mp-1024991,ErCu2,"['Er', 'Cu']",6.0,-27.23167433,0.0003181867195598542,0.0,
14183,Ag1Cu4Er1,mp-1077498,ErCu4Ag,"['Er', 'Cu', 'Ag']",6.0,-25.26146095,0.002436053417969042,0.0,
25251,Au1Cu4Er1,mp-1077290,ErCu4Au,"['Er', 'Cu', 'Au']",6.0,-26.34521624,0.002615695941568852,0.0,
29409,Cu4Er1Pd1,mp-1077518,ErCu4Pd,"['Er', 'Cu', 'Pd']",6.0,-28.38006912,0.0,0.0,
21448,Cu5Er1,mp-30579,ErCu5,"['Er', 'Cu']",6.0,-26.23405836,0.0002641711401372149,0.0,
19427,As4Cu2Er2,mp-10993,ErCuAs2,"['Er', 'Cu', 'As']",8.0,-42.37808583,0.0005541172888179347,0.0,
4888,Cu4Er4P8,mp-30196,ErCuP2,"['Er', 'Cu', 'P']",16.0,-91.93603886,0.0011074612341310797,0.0,
31790,Cu2Er2Pb2,mp-16751,ErCuPb,"['Er', 'Cu', 'Pb']",6.0,-26.98408938,0.01576129504475876,0.0,
18603,Cu2Er2Pb2S6,mp-1225628,ErCuPbS3,"['Er', 'Cu', 'Pb', 'S']",12.0,-62.79123778,0.0024074463525387557,0.0,
30872,Cu4Er4Pb4Se12,mp-567983,ErCuPbSe3,"['Er', 'Cu', 'Pb', 'Se']",24.0,-115.44644119,3.441249348945519e-05,0.0,
24655,Cu4Er4S8,mp-12454,ErCuS2,"['Er', 'Cu', 'S']",16.0,-89.71763944,0.0025295425988769438,0.0,
11350,Cu2Er2Sb4,mp-1079261,ErCuSb2,"['Er', 'Cu', 'Sb']",8.0,-38.44280767,0.0,0.0,
19536,Cu2Er2Si2,mp-8122,ErCuSi,"['Er', 'Cu', 'Si']",6.0,-32.19620522,0.0,0.0,
31359,Cu2Er2Sn2,mp-1206800,ErCuSn,"['Er', 'Cu', 'Sn']",6.0,-28.89881699,0.0004816175927730981,0.0,
27877,Cl4Cu4Er4O24Te8,mp-555884,ErCuTe2ClO6,"['Er', 'Cu', 'Te', 'Cl', 'O']",44.0,-255.08290485,0.005950274970273561,0.0,
1702,Er4F12,mp-9371,ErF3,"['Er', 'F']",16.0,-107.21105628,0.002558833726807208,0.0,
28485,Er2Fe4,mp-474,ErFe2,"['Er', 'Fe']",6.0,-43.74077939,0.0,0.0,
18874,C2Er2Fe4Si2,mp-1206739,ErFe2SiC,"['Er', 'Fe', 'Si', 'C']",10.0,-77.69690697,3.552713678800501e-15,3.552713678800501e-15,
1881,Er3Fe9,mp-569783,ErFe3,"['Er', 'Fe']",12.0,-91.12813543,0.0,0.0,
19581,B2Er2Fe8,mp-3045,ErFe4B,"['Er', 'Fe', 'B']",12.0,-93.25693418,0.0012252319075516382,0.0,
25560,Er4Fe20P12,mp-1200519,ErFe5P3,"['Er', 'Fe', 'P']",36.0,-279.5721038,0.000773368565538668,0.0,
3021,B16Er4Fe4,mp-1191434,ErFeB4,"['Er', 'Fe', 'B']",24.0,-174.36615683,0.00038690312011713246,0.0,
29235,C2Er1Fe1,mp-1018064,ErFeC2,"['Er', 'Fe', 'C']",4.0,-32.60597282,0.0,0.0,
12751,Er2Fe2Ru2,mp-1225543,ErFeRu,"['Er', 'Fe', 'Ru']",6.0,-46.2401241,0.0,0.0,
1622,Er2Ga2,mp-1018077,ErGa,"['Er', 'Ga']",4.0,-17.69911562,0.0004649495227049272,0.0,
10760,Er1Ga2,mp-2422,ErGa2,"['Er', 'Ga']",3.0,-12.45339415,0.0035132649007163508,0.0,
17051,Co9Er3Ga6,mp-1189735,ErGa2Co3,"['Er', 'Ga', 'Co']",18.0,-102.70123854,0.005849981592846554,0.0,
6336,Cu3Er1Ga2,mp-1225514,ErGa2Cu3,"['Er', 'Ga', 'Cu']",6.0,-25.08904931,0.0,0.0,
10736,Er2Ga4Ni2,mp-1025508,ErGa2Ni,"['Er', 'Ga', 'Ni']",8.0,-38.05121723,0.0003908684057618572,0.0,
7682,Er3Ga6Ni9,mp-1225816,ErGa2Ni3,"['Er', 'Ga', 'Ni']",18.0,-93.99389594,0.0022320519987006904,-2.6645352591003757e-15,
26916,Er2Ga4Pd2,mp-1079745,ErGa2Pd,"['Er', 'Ga', 'Pd']",8.0,-38.00092253,0.0,0.0,
19244,Er1Ga3,mp-398,ErGa3,"['Er', 'Ga']",4.0,-15.75862907,0.0,0.0,
5309,Er3Ga9Os3,mp-1213036,ErGa3Os,"['Er', 'Ga', 'Os']",15.0,-81.91938705,0.00018213937500277666,-4.440892098500626e-15,
26553,Er3Ga9Ru3,mp-1103943,ErGa3Ru,"['Er', 'Ga', 'Ru']",15.0,-77.53979608,8.181162630283012e-05,0.0,
23480,Er2Ga8Ni2,mp-1095496,ErGa4Ni,"['Er', 'Ga', 'Ni']",12.0,-51.24136728,0.0021425933048506707,0.0,
14526,Co1Er1Ga5,mp-1025225,ErGa5Co,"['Er', 'Ga', 'Co']",7.0,-30.08453017,0.0,-1.509903313490213e-14,
21465,Au2Er2Ga2,mp-1225586,ErGaAu,"['Er', 'Ga', 'Au']",6.0,-26.44689646,0.01898306172037678,0.0,
4013,Co4Er4Ga4,mp-11433,ErGaCo,"['Er', 'Ga', 'Co']",12.0,-64.81291339,9.769962616701378e-15,0.0,
7447,Er4Ga4Ir4,mp-1102196,ErGaIr,"['Er', 'Ga', 'Ir']",12.0,-76.52517108,0.0029765931461582795,0.0,
21641,Er4Ga4Ni4,mp-1102207,ErGaNi,"['Er', 'Ga', 'Ni']",12.0,-61.34950598,0.0008669231347653295,0.0,
28729,Er4Ga4Pd4,mp-31387,ErGaPd,"['Er', 'Ga', 'Pd']",12.0,-61.8906315,0.0,0.0,
30588,Er4Ga4Pt4,mp-1102669,ErGaPt,"['Er', 'Ga', 'Pt']",12.0,-67.98537894,0.0014536613313795854,0.0,
23860,Er4Ga4Rh4,mp-1103035,ErGaRh,"['Er', 'Ga', 'Rh']",12.0,-70.75466482,0.0020088022314448395,0.0,
15847,Er1Ga1Rh2,mp-863711,ErGaRh2,"['Er', 'Ga', 'Rh']",4.0,-25.76550192,0.0012505194506839956,0.0,
20574,Er4Ge8Pt4,mp-17760,ErGe2Pt,"['Er', 'Ge', 'Pt']",16.0,-92.9912128,0.0,0.0,
18895,Bi8Er8Ge8O40,mp-559109,ErGeBiO5,"['Er', 'Ge', 'Bi', 'O']",64.0,-445.22307711,0.0,0.0,
25910,Er6Ge6Pd6,mp-1106394,ErGePd,"['Er', 'Ge', 'Pd']",18.0,-103.93058484,0.0,0.0,
16022,Er4Ge4Pd8,mp-20819,ErGePd2,"['Er', 'Ge', 'Pd']",16.0,-92.84638896,0.0,0.0,
698,Er4Ge4Pt4,mp-13579,ErGePt,"['Er', 'Ge', 'Pt']",12.0,-74.6409386,0.0,0.0,
13491,Er4Ge4Rh4,mp-20043,ErGeRh,"['Er', 'Ge', 'Rh']",12.0,-78.101606,0.0,0.0,
12466,Er6Ge6Rh12,mp-1213221,ErGeRh2,"['Er', 'Ge', 'Rh']",24.0,-164.41319815,0.0005593799433079027,0.0,
25177,Er4Ge4Ru4,mp-19841,ErGeRu,"['Er', 'Ge', 'Ru']",12.0,-82.65457317,0.0,0.0,
9877,Er1H2,mp-24192,ErH2,"['Er', 'H']",3.0,-13.41189948,0.00036458424234986353,0.0,
8694,Cl6Er2H4O26,mp-1202664,ErH2Cl3O13,"['Er', 'H', 'Cl', 'O']",38.0,-183.80421393,0.0012961955355672572,0.0,
26034,Cl2Er2H4O4,mp-1101811,ErH2ClO2,"['Er', 'H', 'Cl', 'O']",12.0,-71.39641274,0.002355014383137899,0.0,
30126,Er6H18,mp-1190750,ErH3,"['Er', 'H']",24.0,-102.89407632,3.96234464528078e-05,0.0,
7838,Cl2Er2H2,mp-24051,ErHCl,"['Er', 'H', 'Cl']",6.0,-28.05491778,0.01421543144770876,0.0,
24935,Er2H2O4,mp-504801,ErHO2,"['Er', 'H', 'O']",8.0,-57.17577216,0.001489482349853688,0.0,
10562,Er1H1Se1,mp-1206742,ErHSe,"['Er', 'H', 'Se']",3.0,-15.71779819,1.4962871093260333e-05,0.0,
25900,Er2F14Hf2,mp-1213061,ErHfF7,"['Er', 'Hf', 'F']",18.0,-127.17654886,0.0021801807920951433,-6.217248937900877e-15,
6058,Er1Hf1Ru2,mp-1184159,ErHfRu2,"['Er', 'Hf', 'Ru']",4.0,-35.4932239,0.0036777476391609554,0.0,
23122,Er1Hg1,mp-2468,ErHg,"['Er', 'Hg']",2.0,-5.84137199,0.0,0.0,
2299,Er2Hg6,mp-866102,ErHg3,"['Er', 'Hg']",8.0,-13.56249659,0.0,0.0,
7121,Er2I6,mp-866003,ErI3,"['Er', 'I']",8.0,-29.02487423,0.07081266109985318,0.0,
13110,Er1In1,mp-11370,ErIn,"['Er', 'In']",2.0,-8.1625771,0.016405370135498032,0.0,
1242,Er10In20Pd10,mp-1213359,ErIn2Pd,"['Er', 'In', 'Pd']",40.0,-178.22147672,0.0,0.0,
10577,Er1In3,mp-1291,ErIn3,"['Er', 'In']",4.0,-14.32913308,0.0,0.0,
18580,Er1In5Rh1,mp-1206255,ErIn5Rh,"['Er', 'In', 'Rh']",7.0,-28.36583981,0.000915139796316744,0.0,
23676,Ag2Er1In1,mp-30340,ErInAg2,"['Er', 'In', 'Ag']",4.0,-14.41939751,0.0,0.0,
4262,Au3Er3In3,mp-30375,ErInAu,"['Er', 'In', 'Au']",9.0,-38.36042518,0.0006034434060326888,-8.881784197001252e-16,
9721,Au2Er1In1,mp-30376,ErInAu2,"['Er', 'In', 'Au']",4.0,-16.66512586,0.0009491410791016008,0.0,
2578,Cu3Er3In3,mp-3950,ErInCu,"['Er', 'In', 'Cu']",9.0,-37.94988378,0.0025836802061629527,0.0,
19586,Cu4Er1In1,mp-1206262,ErInCu4,"['Er', 'In', 'Cu']",6.0,-25.41011603,0.0,0.0,
3747,Er3In3Ni3,mp-31427,ErInNi,"['Er', 'In', 'Ni']",9.0,-43.8296475,9.955756293322793e-05,-1.7763568394002505e-15,
31838,Er1In1Ni4,mp-1024983,ErInNi4,"['Er', 'In', 'Ni']",6.0,-32.85714659,-4.440892098500626e-15,-4.440892098500626e-15,
26275,Er3In3Pd3,mp-4508,ErInPd,"['Er', 'In', 'Pd']",9.0,-44.83346378,0.002409392825520662,0.0,
30176,Er1In1Pd2,mp-11371,ErInPd2,"['Er', 'In', 'Pd']",4.0,-21.04396565,-2.6645352591003757e-15,0.0,
6936,Er3In3Pt3,mp-3526,ErInPt,"['Er', 'In', 'Pt']",9.0,-49.12161556,0.0029513933984377516,0.0,
6984,Er3In3Rh3,mp-3141,ErInRh,"['Er', 'In', 'Rh']",9.0,-50.83250601,0.00040670798177089296,0.0,
26880,Er1In1Rh2,mp-977400,ErInRh2,"['Er', 'In', 'Rh']",4.0,-25.18539352,0.0001704226428218547,0.0,
26325,Er1Ir1,mp-2713,ErIr,"['Er', 'Ir']",2.0,-15.2493203,0.010013922265624586,0.0,
5804,Er2Ir4,mp-1495,ErIr2,"['Er', 'Ir']",6.0,-49.54379712,0.006571355040689397,0.0,
23660,Cu2Er1Lu1,mp-1184202,ErLuCu2,"['Er', 'Lu', 'Cu']",4.0,-18.44841872,0.0006377440112306232,0.0,
29733,Er1Lu1Ru2,mp-1184363,ErLuRu2,"['Er', 'Lu', 'Ru']",4.0,-29.34578499,0.0021849056066898243,0.0,
27467,Au3Er3Mg3,mp-1205975,ErMgAu,"['Er', 'Mg', 'Au']",9.0,-34.45824671,0.0,0.0,
23695,Au2Er1Mg1,mp-1184216,ErMgAu2,"['Er', 'Mg', 'Au']",4.0,-15.87604275,0.0,0.0,
360,Er1Hg2Mg1,mp-863674,ErMgHg2,"['Er', 'Mg', 'Hg']",4.0,-8.55363287,0.0,0.0,
20266,Er3In3Mg3,mp-1205779,ErMgIn,"['Er', 'Mg', 'In']",9.0,-30.00775231,0.0,-8.881784197001252e-16,
25813,Er3Mg3Pd3,mp-1079435,ErMgPd,"['Er', 'Mg', 'Pd']",9.0,-40.32932196,0.0,0.0,
24956,Er1Mg1Rh2,mp-1184217,ErMgRh2,"['Er', 'Mg', 'Rh']",4.0,-23.91964776,0.0,0.0,
6633,Er2Mg2Sn2,mp-862993,ErMgSn,"['Er', 'Mg', 'Sn']",6.0,-23.60427128,3.552713678800501e-15,0.0,
9944,Er1Mg1Zn2,mp-977433,ErMgZn2,"['Er', 'Mg', 'Zn']",4.0,-10.03136652,0.0,0.0,
28042,Er1Mn12,mp-22482,ErMn12,"['Er', 'Mn']",13.0,-114.64235842,0.004594537103365326,0.0,
28455,Er4Mn8O20,mp-19345,ErMn2O5,"['Er', 'Mn', 'O']",32.0,-248.47287655,0.0,0.0,
26659,C2Er2Mn4Si2,mp-1206340,ErMn2SiC,"['Er', 'Mn', 'Si', 'C']",10.0,-80.33106322,0.0,0.0,
10649,B16Er4Mn4,mp-1190787,ErMnB4,"['Er', 'Mn', 'B']",24.0,-178.06929212,0.00012643917317767261,0.0,
1634,Er6Mn6O18,mp-19217,ErMnO3,"['Er', 'Mn', 'O']",30.0,-241.54255949,0.0,0.0,
4775,Br4Er4Mo4O16,mp-1194158,ErMoBrO4,"['Er', 'Mo', 'Br', 'O']",28.0,-194.04284228,0.007584731149899326,0.0,
22190,Cl2Er2Mo2O8,mp-559004,ErMoClO4,"['Er', 'Mo', 'Cl', 'O']",14.0,-98.57928409,0.0035132597544498267,-3.552713678800501e-15,
31187,Er4F4Mo4O16,mp-556766,ErMoO4F,"['Er', 'Mo', 'O', 'F']",28.0,-206.86963868,0.004551495943079686,0.0,
23387,Er1N1,mp-19830,ErN,"['Er', 'N']",2.0,-16.45712627,0.0008327619116208496,0.0,
22893,Er2Nb2O8,mp-5370,ErNbO4,"['Er', 'Nb', 'O']",12.0,-106.3560891,1.969495442821767e-05,0.0,
2582,Er1Nb1Ru2,mp-867919,ErNbRu2,"['Er', 'Nb', 'Ru']",4.0,-34.6354132,0.04512905321044869,0.0,
16233,Er4Ni4,mp-567314,ErNi,"['Er', 'Ni']",8.0,-45.24988031,0.004406154639892357,0.0,
12842,Er2Ni4,mp-1939,ErNi2,"['Er', 'Ni']",6.0,-35.1374832,0.0,0.0,
966,B2C1Er1Ni2,mp-6098,ErNi2B2C,"['Er', 'Ni', 'B', 'C']",6.0,-41.84324782,1.2434497875801753e-14,0.0,
1505,Er3Ni9,mp-1051,ErNi3,"['Er', 'Ni']",12.0,-70.9618601,0.0002569026774086325,0.0,
27082,Er12Ge24Ni36,mp-570035,ErNi3Ge2,"['Er', 'Ni', 'Ge']",72.0,-418.22643993,0.0,0.0,
3396,Au1Er1Ni4,mp-1025001,ErNi4Au,"['Er', 'Ni', 'Au']",6.0,-33.38927748,0.0014745358040366696,0.0,
8926,B2Er2Ni8,mp-12965,ErNi4B,"['Er', 'Ni', 'B']",12.0,-74.82404465,0.0008600995605467787,-1.0658141036401503e-14,
17106,Er1Ni5,mp-853,ErNi5,"['Er', 'Ni']",6.0,-35.48709285,0.0,0.0,
7233,Er4Ge12Ni20,mp-1201645,ErNi5Ge3,"['Er', 'Ni', 'Ge']",36.0,-208.45961363,0.0,0.0,
1845,B12Er4Ni28,mp-31130,ErNi7B3,"['Er', 'Ni', 'B']",44.0,-279.19383378,0.0018181920117195105,1.1546319456101628e-14,
4917,As4Er4Ni4,mp-1212933,ErNiAs,"['Er', 'Ni', 'As']",12.0,-72.61156468,0.00037510825032605055,0.0,
14991,B16Er4Ni4,mp-27895,ErNiB4,"['Er', 'Ni', 'B']",24.0,-162.1181911,0.0,0.0,
31660,B2C2Er2Ni2,mp-1078704,ErNiBC,"['Er', 'Ni', 'B', 'C']",8.0,-56.86269721,0.0,0.0,
5453,Bi1Er1Ni1,mp-1206712,ErNiBi,"['Er', 'Ni', 'Bi']",3.0,-16.22207469,3.4907613932766424e-05,0.0,
17969,C2Er1Ni1,mp-11723,ErNiC2,"['Er', 'Ni', 'C']",4.0,-30.18069126,1.8472994384843844e-05,0.0,
25243,Er4Ge4Ni4,mp-20676,ErNiGe,"['Er', 'Ni', 'Ge']",12.0,-69.60775357,0.0,0.0,
13271,Er4Ge8Ni4,mp-582572,ErNiGe2,"['Er', 'Ni', 'Ge']",16.0,-89.43834465,0.0,0.0,
2446,Er2Ge6Ni2,mp-1078854,ErNiGe3,"['Er', 'Ni', 'Ge']",10.0,-53.956931,0.0,0.0,
2046,Er4Ni4O12,mp-18983,ErNiO3,"['Er', 'Ni', 'O']",20.0,-132.71011122,0.0015912150712891204,0.0,
30314,Er4Ni4P4,mp-1103423,ErNiP,"['Er', 'Ni', 'P']",12.0,-77.69172005,0.0,0.0,
27782,Er1Ni1Sb1,mp-21272,ErNiSb,"['Er', 'Ni', 'Sb']",3.0,-17.18728284,0.00010907388183500899,0.0,
544,Er4Ni4Sn4,mp-622620,ErNiSn,"['Er', 'Ni', 'Sn']",12.0,-65.44910907,0.004363828856336127,0.0,
20156,Er12Ni12Sn24,mp-1196661,ErNiSn2,"['Er', 'Ni', 'Sn']",48.0,-247.0356196,8.881784197001252e-16,0.0,
18158,Er2F2O2,mp-1072193,ErOF,"['Er', 'O', 'F']",6.0,-46.29039303,0.02167657060221373,0.0,
26163,Er4Os8,mp-1102333,ErOs2,"['Er', 'Os']",12.0,-112.26074195,0.000915547135416972,0.0,
14668,Er1P1,mp-1144,ErP,"['Er', 'P']",2.0,-13.19850021,0.003668519877929377,0.0,
5462,Er4H4O48P16,mp-707317,ErP4HO12,"['Er', 'P', 'H', 'O']",72.0,-523.70181554,0.0012467025694453682,0.0,
7894,Er4O56P20,mp-4871,ErP5O14,"['Er', 'P', 'O']",80.0,-591.73009898,1.663994726630591e-05,0.0,
4512,Er2O8P2,mp-4006,ErPO4,"['Er', 'P', 'O']",12.0,-96.20249926,2.1012581239432393e-06,0.0,
18921,Er4P4Pd4,mp-8919,ErPPd,"['Er', 'P', 'Pd']",12.0,-75.93075258,0.0,0.0,